V -t * -v 1.0a5 -a 0
A -t * -n 1 -p 0 -o 0x7fffffff -c 30 -a 1
A -t * -h 1 -m 1073741823 -s 0
c -t * -i 4 -n Brown
c -t * -i 0 -n Blue
c -t * -i 1 -n Red
c -t * -i 2 -n Green
c -t * -i 3 -n Orange
n -t * -a 4 -s 4 -S UP -v circle -c brown -i brown
n -t * -a 0 -s 0 -S UP -v box -c blue -i blue
n -t * -a 1 -s 1 -S UP -v circle -c red -i red
n -t * -a 2 -s 2 -S UP -v circle -c green -i green
n -t * -a 3 -s 3 -S UP -v circle -c orange -i orange
l -t * -s 0 -d 1 -S UP -r 1000000 -D 0.01 -c black -o up
l -t * -s 0 -d 2 -S UP -r 1000000 -D 0.01 -c black -o right
l -t * -s 0 -d 3 -S UP -r 1000000 -D 0.01 -c black -o down
l -t * -s 0 -d 4 -S UP -r 1000000 -D 0.01 -c black -o left
n -t 0 -s 0 -S DLABEL -l "node0" -L ""
n -t 0 -s 1 -S DLABEL -l "node1" -L ""
n -t 0 -s 2 -S DLABEL -l "node2" -L ""
n -t 0 -s 3 -S DLABEL -l "node3" -L ""
n -t 0 -s 4 -S DLABEL -l "node4" -L ""
+ -t 0.5 -s 0 -d 1 -p tcp -e 40 -c 0 -i 0 -a 0 -x {0.1 1.3 0 ------- null}
- -t 0.5 -s 0 -d 1 -p tcp -e 40 -c 0 -i 0 -a 0 -x {0.1 1.3 0 ------- null}
h -t 0.5 -s 0 -d 1 -p tcp -e 40 -c 0 -i 0 -a 0 -x {0.1 1.3 -1 ------- null}
+ -t 0.5 -s 0 -d 2 -p cbr -e 500 -c 0 -i 1 -a 0 -x {0.0 2.2 0 ------- null}
- -t 0.5 -s 0 -d 2 -p cbr -e 500 -c 0 -i 1 -a 0 -x {0.0 2.2 0 ------- null}
h -t 0.5 -s 0 -d 2 -p cbr -e 500 -c 0 -i 1 -a 0 -x {0.0 2.2 -1 ------- null}
+ -t 0.5 -s 1 -d 0 -p tcp -e 40 -c 1 -i 2 -a 1 -x {1.1 2.3 0 ------- null}
- -t 0.5 -s 1 -d 0 -p tcp -e 40 -c 1 -i 2 -a 1 -x {1.1 2.3 0 ------- null}
h -t 0.5 -s 1 -d 0 -p tcp -e 40 -c 1 -i 2 -a 1 -x {1.1 2.3 -1 ------- null}
+ -t 0.5 -s 1 -d 0 -p cbr -e 500 -c 1 -i 3 -a 1 -x {1.0 3.2 0 ------- null}
+ -t 0.5 -s 2 -d 0 -p tcp -e 40 -c 2 -i 4 -a 2 -x {2.1 3.3 0 ------- null}
- -t 0.5 -s 2 -d 0 -p tcp -e 40 -c 2 -i 4 -a 2 -x {2.1 3.3 0 ------- null}
h -t 0.5 -s 2 -d 0 -p tcp -e 40 -c 2 -i 4 -a 2 -x {2.1 3.3 -1 ------- null}
+ -t 0.5 -s 2 -d 0 -p cbr -e 500 -c 2 -i 5 -a 2 -x {2.0 4.2 0 ------- null}
+ -t 0.5 -s 3 -d 0 -p tcp -e 40 -c 3 -i 6 -a 3 -x {3.1 4.3 0 ------- null}
- -t 0.5 -s 3 -d 0 -p tcp -e 40 -c 3 -i 6 -a 3 -x {3.1 4.3 0 ------- null}
h -t 0.5 -s 3 -d 0 -p tcp -e 40 -c 3 -i 6 -a 3 -x {3.1 4.3 -1 ------- null}
+ -t 0.5 -s 3 -d 0 -p cbr -e 500 -c 3 -i 7 -a 3 -x {3.0 0.2 0 ------- null}
+ -t 0.5 -s 4 -d 0 -p tcp -e 40 -c 4 -i 8 -a 4 -x {4.1 0.3 0 ------- null}
- -t 0.5 -s 4 -d 0 -p tcp -e 40 -c 4 -i 8 -a 4 -x {4.1 0.3 0 ------- null}
h -t 0.5 -s 4 -d 0 -p tcp -e 40 -c 4 -i 8 -a 4 -x {4.1 0.3 -1 ------- null}
+ -t 0.5 -s 4 -d 0 -p cbr -e 500 -c 4 -i 9 -a 4 -x {4.0 1.2 0 ------- null}
- -t 0.50032 -s 1 -d 0 -p cbr -e 500 -c 1 -i 3 -a 1 -x {1.0 3.2 0 ------- null}
h -t 0.50032 -s 1 -d 0 -p cbr -e 500 -c 1 -i 3 -a 1 -x {1.0 3.2 -1 ------- null}
- -t 0.50032 -s 2 -d 0 -p cbr -e 500 -c 2 -i 5 -a 2 -x {2.0 4.2 0 ------- null}
h -t 0.50032 -s 2 -d 0 -p cbr -e 500 -c 2 -i 5 -a 2 -x {2.0 4.2 -1 ------- null}
- -t 0.50032 -s 3 -d 0 -p cbr -e 500 -c 3 -i 7 -a 3 -x {3.0 0.2 0 ------- null}
h -t 0.50032 -s 3 -d 0 -p cbr -e 500 -c 3 -i 7 -a 3 -x {3.0 0.2 -1 ------- null}
- -t 0.50032 -s 4 -d 0 -p cbr -e 500 -c 4 -i 9 -a 4 -x {4.0 1.2 0 ------- null}
h -t 0.50032 -s 4 -d 0 -p cbr -e 500 -c 4 -i 9 -a 4 -x {4.0 1.2 -1 ------- null}
+ -t 0.505 -s 0 -d 2 -p cbr -e 500 -c 0 -i 10 -a 0 -x {0.0 2.2 1 ------- null}
- -t 0.505 -s 0 -d 2 -p cbr -e 500 -c 0 -i 10 -a 0 -x {0.0 2.2 1 ------- null}
h -t 0.505 -s 0 -d 2 -p cbr -e 500 -c 0 -i 10 -a 0 -x {0.0 2.2 -1 ------- null}
+ -t 0.505 -s 1 -d 0 -p cbr -e 500 -c 1 -i 11 -a 1 -x {1.0 3.2 1 ------- null}
- -t 0.505 -s 1 -d 0 -p cbr -e 500 -c 1 -i 11 -a 1 -x {1.0 3.2 1 ------- null}
h -t 0.505 -s 1 -d 0 -p cbr -e 500 -c 1 -i 11 -a 1 -x {1.0 3.2 -1 ------- null}
+ -t 0.505 -s 2 -d 0 -p cbr -e 500 -c 2 -i 12 -a 2 -x {2.0 4.2 1 ------- null}
- -t 0.505 -s 2 -d 0 -p cbr -e 500 -c 2 -i 12 -a 2 -x {2.0 4.2 1 ------- null}
h -t 0.505 -s 2 -d 0 -p cbr -e 500 -c 2 -i 12 -a 2 -x {2.0 4.2 -1 ------- null}
+ -t 0.505 -s 3 -d 0 -p cbr -e 500 -c 3 -i 13 -a 3 -x {3.0 0.2 1 ------- null}
- -t 0.505 -s 3 -d 0 -p cbr -e 500 -c 3 -i 13 -a 3 -x {3.0 0.2 1 ------- null}
h -t 0.505 -s 3 -d 0 -p cbr -e 500 -c 3 -i 13 -a 3 -x {3.0 0.2 -1 ------- null}
+ -t 0.505 -s 4 -d 0 -p cbr -e 500 -c 4 -i 14 -a 4 -x {4.0 1.2 1 ------- null}
- -t 0.505 -s 4 -d 0 -p cbr -e 500 -c 4 -i 14 -a 4 -x {4.0 1.2 1 ------- null}
h -t 0.505 -s 4 -d 0 -p cbr -e 500 -c 4 -i 14 -a 4 -x {4.0 1.2 -1 ------- null}
+ -t 0.51 -s 0 -d 2 -p cbr -e 500 -c 0 -i 15 -a 0 -x {0.0 2.2 2 ------- null}
- -t 0.51 -s 0 -d 2 -p cbr -e 500 -c 0 -i 15 -a 0 -x {0.0 2.2 2 ------- null}
h -t 0.51 -s 0 -d 2 -p cbr -e 500 -c 0 -i 15 -a 0 -x {0.0 2.2 -1 ------- null}
+ -t 0.51 -s 1 -d 0 -p cbr -e 500 -c 1 -i 16 -a 1 -x {1.0 3.2 2 ------- null}
- -t 0.51 -s 1 -d 0 -p cbr -e 500 -c 1 -i 16 -a 1 -x {1.0 3.2 2 ------- null}
h -t 0.51 -s 1 -d 0 -p cbr -e 500 -c 1 -i 16 -a 1 -x {1.0 3.2 -1 ------- null}
+ -t 0.51 -s 2 -d 0 -p cbr -e 500 -c 2 -i 17 -a 2 -x {2.0 4.2 2 ------- null}
- -t 0.51 -s 2 -d 0 -p cbr -e 500 -c 2 -i 17 -a 2 -x {2.0 4.2 2 ------- null}
h -t 0.51 -s 2 -d 0 -p cbr -e 500 -c 2 -i 17 -a 2 -x {2.0 4.2 -1 ------- null}
+ -t 0.51 -s 3 -d 0 -p cbr -e 500 -c 3 -i 18 -a 3 -x {3.0 0.2 2 ------- null}
- -t 0.51 -s 3 -d 0 -p cbr -e 500 -c 3 -i 18 -a 3 -x {3.0 0.2 2 ------- null}
h -t 0.51 -s 3 -d 0 -p cbr -e 500 -c 3 -i 18 -a 3 -x {3.0 0.2 -1 ------- null}
+ -t 0.51 -s 4 -d 0 -p cbr -e 500 -c 4 -i 19 -a 4 -x {4.0 1.2 2 ------- null}
- -t 0.51 -s 4 -d 0 -p cbr -e 500 -c 4 -i 19 -a 4 -x {4.0 1.2 2 ------- null}
h -t 0.51 -s 4 -d 0 -p cbr -e 500 -c 4 -i 19 -a 4 -x {4.0 1.2 -1 ------- null}
r -t 0.51032 -s 0 -d 1 -p tcp -e 40 -c 0 -i 0 -a 0 -x {0.1 1.3 0 ------- null}
+ -t 0.51032 -s 1 -d 0 -p ack -e 40 -c 0 -i 20 -a 0 -x {1.3 0.1 0 ------- null}
r -t 0.51032 -s 1 -d 0 -p tcp -e 40 -c 1 -i 2 -a 1 -x {1.1 2.3 0 ------- null}
+ -t 0.51032 -s 0 -d 2 -p tcp -e 40 -c 1 -i 2 -a 1 -x {1.1 2.3 0 ------- null}
r -t 0.51032 -s 2 -d 0 -p tcp -e 40 -c 2 -i 4 -a 2 -x {2.1 3.3 0 ------- null}
+ -t 0.51032 -s 0 -d 3 -p tcp -e 40 -c 2 -i 4 -a 2 -x {2.1 3.3 0 ------- null}
- -t 0.51032 -s 0 -d 3 -p tcp -e 40 -c 2 -i 4 -a 2 -x {2.1 3.3 0 ------- null}
h -t 0.51032 -s 0 -d 3 -p tcp -e 40 -c 2 -i 4 -a 2 -x {2.1 3.3 -1 ------- null}
r -t 0.51032 -s 3 -d 0 -p tcp -e 40 -c 3 -i 6 -a 3 -x {3.1 4.3 0 ------- null}
+ -t 0.51032 -s 0 -d 4 -p tcp -e 40 -c 3 -i 6 -a 3 -x {3.1 4.3 0 ------- null}
- -t 0.51032 -s 0 -d 4 -p tcp -e 40 -c 3 -i 6 -a 3 -x {3.1 4.3 0 ------- null}
h -t 0.51032 -s 0 -d 4 -p tcp -e 40 -c 3 -i 6 -a 3 -x {3.1 4.3 -1 ------- null}
r -t 0.51032 -s 4 -d 0 -p tcp -e 40 -c 4 -i 8 -a 4 -x {4.1 0.3 0 ------- null}
+ -t 0.51032 -s 0 -d 4 -p ack -e 40 -c 4 -i 21 -a 4 -x {0.3 4.1 0 ------- null}
- -t 0.51064 -s 0 -d 4 -p ack -e 40 -c 4 -i 21 -a 4 -x {0.3 4.1 0 ------- null}
h -t 0.51064 -s 0 -d 4 -p ack -e 40 -c 4 -i 21 -a 4 -x {0.3 4.1 -1 ------- null}
r -t 0.514 -s 0 -d 2 -p cbr -e 500 -c 0 -i 1 -a 0 -x {0.0 2.2 0 ------- null}
- -t 0.514 -s 0 -d 2 -p tcp -e 40 -c 1 -i 2 -a 1 -x {1.1 2.3 0 ------- null}
h -t 0.514 -s 0 -d 2 -p tcp -e 40 -c 1 -i 2 -a 1 -x {1.1 2.3 -1 ------- null}
- -t 0.514 -s 1 -d 0 -p ack -e 40 -c 0 -i 20 -a 0 -x {1.3 0.1 0 ------- null}
h -t 0.514 -s 1 -d 0 -p ack -e 40 -c 0 -i 20 -a 0 -x {1.3 0.1 -1 ------- null}
r -t 0.51432 -s 1 -d 0 -p cbr -e 500 -c 1 -i 3 -a 1 -x {1.0 3.2 0 ------- null}
+ -t 0.51432 -s 0 -d 3 -p cbr -e 500 -c 1 -i 3 -a 1 -x {1.0 3.2 0 ------- null}
- -t 0.51432 -s 0 -d 3 -p cbr -e 500 -c 1 -i 3 -a 1 -x {1.0 3.2 0 ------- null}
h -t 0.51432 -s 0 -d 3 -p cbr -e 500 -c 1 -i 3 -a 1 -x {1.0 3.2 -1 ------- null}
r -t 0.51432 -s 2 -d 0 -p cbr -e 500 -c 2 -i 5 -a 2 -x {2.0 4.2 0 ------- null}
+ -t 0.51432 -s 0 -d 4 -p cbr -e 500 -c 2 -i 5 -a 2 -x {2.0 4.2 0 ------- null}
- -t 0.51432 -s 0 -d 4 -p cbr -e 500 -c 2 -i 5 -a 2 -x {2.0 4.2 0 ------- null}
h -t 0.51432 -s 0 -d 4 -p cbr -e 500 -c 2 -i 5 -a 2 -x {2.0 4.2 -1 ------- null}
r -t 0.51432 -s 3 -d 0 -p cbr -e 500 -c 3 -i 7 -a 3 -x {3.0 0.2 0 ------- null}
r -t 0.51432 -s 4 -d 0 -p cbr -e 500 -c 4 -i 9 -a 4 -x {4.0 1.2 0 ------- null}
+ -t 0.51432 -s 0 -d 1 -p cbr -e 500 -c 4 -i 9 -a 4 -x {4.0 1.2 0 ------- null}
- -t 0.51432 -s 0 -d 1 -p cbr -e 500 -c 4 -i 9 -a 4 -x {4.0 1.2 0 ------- null}
h -t 0.51432 -s 0 -d 1 -p cbr -e 500 -c 4 -i 9 -a 4 -x {4.0 1.2 -1 ------- null}
+ -t 0.515 -s 0 -d 2 -p cbr -e 500 -c 0 -i 22 -a 0 -x {0.0 2.2 3 ------- null}
- -t 0.515 -s 0 -d 2 -p cbr -e 500 -c 0 -i 22 -a 0 -x {0.0 2.2 3 ------- null}
h -t 0.515 -s 0 -d 2 -p cbr -e 500 -c 0 -i 22 -a 0 -x {0.0 2.2 -1 ------- null}
+ -t 0.515 -s 1 -d 0 -p cbr -e 500 -c 1 -i 23 -a 1 -x {1.0 3.2 3 ------- null}
- -t 0.515 -s 1 -d 0 -p cbr -e 500 -c 1 -i 23 -a 1 -x {1.0 3.2 3 ------- null}
h -t 0.515 -s 1 -d 0 -p cbr -e 500 -c 1 -i 23 -a 1 -x {1.0 3.2 -1 ------- null}
+ -t 0.515 -s 2 -d 0 -p cbr -e 500 -c 2 -i 24 -a 2 -x {2.0 4.2 3 ------- null}
- -t 0.515 -s 2 -d 0 -p cbr -e 500 -c 2 -i 24 -a 2 -x {2.0 4.2 3 ------- null}
h -t 0.515 -s 2 -d 0 -p cbr -e 500 -c 2 -i 24 -a 2 -x {2.0 4.2 -1 ------- null}
+ -t 0.515 -s 3 -d 0 -p cbr -e 500 -c 3 -i 25 -a 3 -x {3.0 0.2 3 ------- null}
- -t 0.515 -s 3 -d 0 -p cbr -e 500 -c 3 -i 25 -a 3 -x {3.0 0.2 3 ------- null}
h -t 0.515 -s 3 -d 0 -p cbr -e 500 -c 3 -i 25 -a 3 -x {3.0 0.2 -1 ------- null}
+ -t 0.515 -s 4 -d 0 -p cbr -e 500 -c 4 -i 26 -a 4 -x {4.0 1.2 3 ------- null}
- -t 0.515 -s 4 -d 0 -p cbr -e 500 -c 4 -i 26 -a 4 -x {4.0 1.2 3 ------- null}
h -t 0.515 -s 4 -d 0 -p cbr -e 500 -c 4 -i 26 -a 4 -x {4.0 1.2 -1 ------- null}
r -t 0.519 -s 0 -d 2 -p cbr -e 500 -c 0 -i 10 -a 0 -x {0.0 2.2 1 ------- null}
r -t 0.519 -s 1 -d 0 -p cbr -e 500 -c 1 -i 11 -a 1 -x {1.0 3.2 1 ------- null}
+ -t 0.519 -s 0 -d 3 -p cbr -e 500 -c 1 -i 11 -a 1 -x {1.0 3.2 1 ------- null}
- -t 0.519 -s 0 -d 3 -p cbr -e 500 -c 1 -i 11 -a 1 -x {1.0 3.2 1 ------- null}
h -t 0.519 -s 0 -d 3 -p cbr -e 500 -c 1 -i 11 -a 1 -x {1.0 3.2 -1 ------- null}
r -t 0.519 -s 2 -d 0 -p cbr -e 500 -c 2 -i 12 -a 2 -x {2.0 4.2 1 ------- null}
+ -t 0.519 -s 0 -d 4 -p cbr -e 500 -c 2 -i 12 -a 2 -x {2.0 4.2 1 ------- null}
- -t 0.519 -s 0 -d 4 -p cbr -e 500 -c 2 -i 12 -a 2 -x {2.0 4.2 1 ------- null}
h -t 0.519 -s 0 -d 4 -p cbr -e 500 -c 2 -i 12 -a 2 -x {2.0 4.2 -1 ------- null}
r -t 0.519 -s 3 -d 0 -p cbr -e 500 -c 3 -i 13 -a 3 -x {3.0 0.2 1 ------- null}
r -t 0.519 -s 4 -d 0 -p cbr -e 500 -c 4 -i 14 -a 4 -x {4.0 1.2 1 ------- null}
+ -t 0.519 -s 0 -d 1 -p cbr -e 500 -c 4 -i 14 -a 4 -x {4.0 1.2 1 ------- null}
- -t 0.519 -s 0 -d 1 -p cbr -e 500 -c 4 -i 14 -a 4 -x {4.0 1.2 1 ------- null}
h -t 0.519 -s 0 -d 1 -p cbr -e 500 -c 4 -i 14 -a 4 -x {4.0 1.2 -1 ------- null}
+ -t 0.52 -s 0 -d 2 -p cbr -e 500 -c 0 -i 27 -a 0 -x {0.0 2.2 4 ------- null}
- -t 0.52 -s 0 -d 2 -p cbr -e 500 -c 0 -i 27 -a 0 -x {0.0 2.2 4 ------- null}
h -t 0.52 -s 0 -d 2 -p cbr -e 500 -c 0 -i 27 -a 0 -x {0.0 2.2 -1 ------- null}
+ -t 0.52 -s 1 -d 0 -p cbr -e 500 -c 1 -i 28 -a 1 -x {1.0 3.2 4 ------- null}
- -t 0.52 -s 1 -d 0 -p cbr -e 500 -c 1 -i 28 -a 1 -x {1.0 3.2 4 ------- null}
h -t 0.52 -s 1 -d 0 -p cbr -e 500 -c 1 -i 28 -a 1 -x {1.0 3.2 -1 ------- null}
+ -t 0.52 -s 2 -d 0 -p cbr -e 500 -c 2 -i 29 -a 2 -x {2.0 4.2 4 ------- null}
- -t 0.52 -s 2 -d 0 -p cbr -e 500 -c 2 -i 29 -a 2 -x {2.0 4.2 4 ------- null}
h -t 0.52 -s 2 -d 0 -p cbr -e 500 -c 2 -i 29 -a 2 -x {2.0 4.2 -1 ------- null}
+ -t 0.52 -s 3 -d 0 -p cbr -e 500 -c 3 -i 30 -a 3 -x {3.0 0.2 4 ------- null}
- -t 0.52 -s 3 -d 0 -p cbr -e 500 -c 3 -i 30 -a 3 -x {3.0 0.2 4 ------- null}
h -t 0.52 -s 3 -d 0 -p cbr -e 500 -c 3 -i 30 -a 3 -x {3.0 0.2 -1 ------- null}
+ -t 0.52 -s 4 -d 0 -p cbr -e 500 -c 4 -i 31 -a 4 -x {4.0 1.2 4 ------- null}
- -t 0.52 -s 4 -d 0 -p cbr -e 500 -c 4 -i 31 -a 4 -x {4.0 1.2 4 ------- null}
h -t 0.52 -s 4 -d 0 -p cbr -e 500 -c 4 -i 31 -a 4 -x {4.0 1.2 -1 ------- null}
r -t 0.52064 -s 0 -d 3 -p tcp -e 40 -c 2 -i 4 -a 2 -x {2.1 3.3 0 ------- null}
+ -t 0.52064 -s 3 -d 0 -p ack -e 40 -c 2 -i 32 -a 2 -x {3.3 2.1 0 ------- null}
r -t 0.52064 -s 0 -d 4 -p tcp -e 40 -c 3 -i 6 -a 3 -x {3.1 4.3 0 ------- null}
+ -t 0.52064 -s 4 -d 0 -p ack -e 40 -c 3 -i 33 -a 3 -x {4.3 3.1 0 ------- null}
r -t 0.52096 -s 0 -d 4 -p ack -e 40 -c 4 -i 21 -a 4 -x {0.3 4.1 0 ------- null}
+ -t 0.52096 -s 4 -d 0 -p tcp -e 1040 -c 4 -i 34 -a 4 -x {4.1 0.3 1 ------- null}
+ -t 0.52096 -s 4 -d 0 -p tcp -e 1040 -c 4 -i 35 -a 4 -x {4.1 0.3 2 ------- null}
r -t 0.524 -s 0 -d 2 -p cbr -e 500 -c 0 -i 15 -a 0 -x {0.0 2.2 2 ------- null}
r -t 0.524 -s 1 -d 0 -p cbr -e 500 -c 1 -i 16 -a 1 -x {1.0 3.2 2 ------- null}
+ -t 0.524 -s 0 -d 3 -p cbr -e 500 -c 1 -i 16 -a 1 -x {1.0 3.2 2 ------- null}
- -t 0.524 -s 0 -d 3 -p cbr -e 500 -c 1 -i 16 -a 1 -x {1.0 3.2 2 ------- null}
h -t 0.524 -s 0 -d 3 -p cbr -e 500 -c 1 -i 16 -a 1 -x {1.0 3.2 -1 ------- null}
r -t 0.524 -s 2 -d 0 -p cbr -e 500 -c 2 -i 17 -a 2 -x {2.0 4.2 2 ------- null}
+ -t 0.524 -s 0 -d 4 -p cbr -e 500 -c 2 -i 17 -a 2 -x {2.0 4.2 2 ------- null}
- -t 0.524 -s 0 -d 4 -p cbr -e 500 -c 2 -i 17 -a 2 -x {2.0 4.2 2 ------- null}
h -t 0.524 -s 0 -d 4 -p cbr -e 500 -c 2 -i 17 -a 2 -x {2.0 4.2 -1 ------- null}
r -t 0.524 -s 3 -d 0 -p cbr -e 500 -c 3 -i 18 -a 3 -x {3.0 0.2 2 ------- null}
r -t 0.524 -s 4 -d 0 -p cbr -e 500 -c 4 -i 19 -a 4 -x {4.0 1.2 2 ------- null}
+ -t 0.524 -s 0 -d 1 -p cbr -e 500 -c 4 -i 19 -a 4 -x {4.0 1.2 2 ------- null}
- -t 0.524 -s 0 -d 1 -p cbr -e 500 -c 4 -i 19 -a 4 -x {4.0 1.2 2 ------- null}
h -t 0.524 -s 0 -d 1 -p cbr -e 500 -c 4 -i 19 -a 4 -x {4.0 1.2 -1 ------- null}
- -t 0.524 -s 3 -d 0 -p ack -e 40 -c 2 -i 32 -a 2 -x {3.3 2.1 0 ------- null}
h -t 0.524 -s 3 -d 0 -p ack -e 40 -c 2 -i 32 -a 2 -x {3.3 2.1 -1 ------- null}
- -t 0.524 -s 4 -d 0 -p ack -e 40 -c 3 -i 33 -a 3 -x {4.3 3.1 0 ------- null}
h -t 0.524 -s 4 -d 0 -p ack -e 40 -c 3 -i 33 -a 3 -x {4.3 3.1 -1 ------- null}
r -t 0.52432 -s 0 -d 2 -p tcp -e 40 -c 1 -i 2 -a 1 -x {1.1 2.3 0 ------- null}
+ -t 0.52432 -s 2 -d 0 -p ack -e 40 -c 1 -i 36 -a 1 -x {2.3 1.1 0 ------- null}
- -t 0.52432 -s 2 -d 0 -p ack -e 40 -c 1 -i 36 -a 1 -x {2.3 1.1 0 ------- null}
h -t 0.52432 -s 2 -d 0 -p ack -e 40 -c 1 -i 36 -a 1 -x {2.3 1.1 -1 ------- null}
r -t 0.52432 -s 1 -d 0 -p ack -e 40 -c 0 -i 20 -a 0 -x {1.3 0.1 0 ------- null}
+ -t 0.52432 -s 0 -d 1 -p tcp -e 1040 -c 0 -i 37 -a 0 -x {0.1 1.3 1 ------- null}
+ -t 0.52432 -s 0 -d 1 -p tcp -e 1040 -c 0 -i 38 -a 0 -x {0.1 1.3 2 ------- null}
- -t 0.52432 -s 4 -d 0 -p tcp -e 1040 -c 4 -i 34 -a 4 -x {4.1 0.3 1 ------- null}
h -t 0.52432 -s 4 -d 0 -p tcp -e 1040 -c 4 -i 34 -a 4 -x {4.1 0.3 -1 ------- null}
+ -t 0.525 -s 0 -d 2 -p cbr -e 500 -c 0 -i 39 -a 0 -x {0.0 2.2 5 ------- null}
- -t 0.525 -s 0 -d 2 -p cbr -e 500 -c 0 -i 39 -a 0 -x {0.0 2.2 5 ------- null}
h -t 0.525 -s 0 -d 2 -p cbr -e 500 -c 0 -i 39 -a 0 -x {0.0 2.2 -1 ------- null}
+ -t 0.525 -s 1 -d 0 -p cbr -e 500 -c 1 -i 40 -a 1 -x {1.0 3.2 5 ------- null}
- -t 0.525 -s 1 -d 0 -p cbr -e 500 -c 1 -i 40 -a 1 -x {1.0 3.2 5 ------- null}
h -t 0.525 -s 1 -d 0 -p cbr -e 500 -c 1 -i 40 -a 1 -x {1.0 3.2 -1 ------- null}
+ -t 0.525 -s 2 -d 0 -p cbr -e 500 -c 2 -i 41 -a 2 -x {2.0 4.2 5 ------- null}
- -t 0.525 -s 2 -d 0 -p cbr -e 500 -c 2 -i 41 -a 2 -x {2.0 4.2 5 ------- null}
h -t 0.525 -s 2 -d 0 -p cbr -e 500 -c 2 -i 41 -a 2 -x {2.0 4.2 -1 ------- null}
+ -t 0.525 -s 3 -d 0 -p cbr -e 500 -c 3 -i 42 -a 3 -x {3.0 0.2 5 ------- null}
- -t 0.525 -s 3 -d 0 -p cbr -e 500 -c 3 -i 42 -a 3 -x {3.0 0.2 5 ------- null}
h -t 0.525 -s 3 -d 0 -p cbr -e 500 -c 3 -i 42 -a 3 -x {3.0 0.2 -1 ------- null}
+ -t 0.525 -s 4 -d 0 -p cbr -e 500 -c 4 -i 43 -a 4 -x {4.0 1.2 5 ------- null}
- -t 0.528 -s 0 -d 1 -p tcp -e 1040 -c 0 -i 37 -a 0 -x {0.1 1.3 1 ------- null}
h -t 0.528 -s 0 -d 1 -p tcp -e 1040 -c 0 -i 37 -a 0 -x {0.1 1.3 -1 ------- null}
r -t 0.52832 -s 0 -d 3 -p cbr -e 500 -c 1 -i 3 -a 1 -x {1.0 3.2 0 ------- null}
r -t 0.52832 -s 0 -d 4 -p cbr -e 500 -c 2 -i 5 -a 2 -x {2.0 4.2 0 ------- null}
r -t 0.52832 -s 0 -d 1 -p cbr -e 500 -c 4 -i 9 -a 4 -x {4.0 1.2 0 ------- null}
r -t 0.529 -s 0 -d 2 -p cbr -e 500 -c 0 -i 22 -a 0 -x {0.0 2.2 3 ------- null}
r -t 0.529 -s 1 -d 0 -p cbr -e 500 -c 1 -i 23 -a 1 -x {1.0 3.2 3 ------- null}
+ -t 0.529 -s 0 -d 3 -p cbr -e 500 -c 1 -i 23 -a 1 -x {1.0 3.2 3 ------- null}
- -t 0.529 -s 0 -d 3 -p cbr -e 500 -c 1 -i 23 -a 1 -x {1.0 3.2 3 ------- null}
h -t 0.529 -s 0 -d 3 -p cbr -e 500 -c 1 -i 23 -a 1 -x {1.0 3.2 -1 ------- null}
r -t 0.529 -s 2 -d 0 -p cbr -e 500 -c 2 -i 24 -a 2 -x {2.0 4.2 3 ------- null}
+ -t 0.529 -s 0 -d 4 -p cbr -e 500 -c 2 -i 24 -a 2 -x {2.0 4.2 3 ------- null}
- -t 0.529 -s 0 -d 4 -p cbr -e 500 -c 2 -i 24 -a 2 -x {2.0 4.2 3 ------- null}
h -t 0.529 -s 0 -d 4 -p cbr -e 500 -c 2 -i 24 -a 2 -x {2.0 4.2 -1 ------- null}
r -t 0.529 -s 3 -d 0 -p cbr -e 500 -c 3 -i 25 -a 3 -x {3.0 0.2 3 ------- null}
r -t 0.529 -s 4 -d 0 -p cbr -e 500 -c 4 -i 26 -a 4 -x {4.0 1.2 3 ------- null}
+ -t 0.529 -s 0 -d 1 -p cbr -e 500 -c 4 -i 26 -a 4 -x {4.0 1.2 3 ------- null}
+ -t 0.53 -s 0 -d 2 -p cbr -e 500 -c 0 -i 44 -a 0 -x {0.0 2.2 6 ------- null}
- -t 0.53 -s 0 -d 2 -p cbr -e 500 -c 0 -i 44 -a 0 -x {0.0 2.2 6 ------- null}
h -t 0.53 -s 0 -d 2 -p cbr -e 500 -c 0 -i 44 -a 0 -x {0.0 2.2 -1 ------- null}
+ -t 0.53 -s 1 -d 0 -p cbr -e 500 -c 1 -i 45 -a 1 -x {1.0 3.2 6 ------- null}
- -t 0.53 -s 1 -d 0 -p cbr -e 500 -c 1 -i 45 -a 1 -x {1.0 3.2 6 ------- null}
h -t 0.53 -s 1 -d 0 -p cbr -e 500 -c 1 -i 45 -a 1 -x {1.0 3.2 -1 ------- null}
+ -t 0.53 -s 2 -d 0 -p cbr -e 500 -c 2 -i 46 -a 2 -x {2.0 4.2 6 ------- null}
- -t 0.53 -s 2 -d 0 -p cbr -e 500 -c 2 -i 46 -a 2 -x {2.0 4.2 6 ------- null}
h -t 0.53 -s 2 -d 0 -p cbr -e 500 -c 2 -i 46 -a 2 -x {2.0 4.2 -1 ------- null}
+ -t 0.53 -s 3 -d 0 -p cbr -e 500 -c 3 -i 47 -a 3 -x {3.0 0.2 6 ------- null}
- -t 0.53 -s 3 -d 0 -p cbr -e 500 -c 3 -i 47 -a 3 -x {3.0 0.2 6 ------- null}
h -t 0.53 -s 3 -d 0 -p cbr -e 500 -c 3 -i 47 -a 3 -x {3.0 0.2 -1 ------- null}
+ -t 0.53 -s 4 -d 0 -p cbr -e 500 -c 4 -i 48 -a 4 -x {4.0 1.2 6 ------- null}
- -t 0.53264 -s 4 -d 0 -p tcp -e 1040 -c 4 -i 35 -a 4 -x {4.1 0.3 2 ------- null}
h -t 0.53264 -s 4 -d 0 -p tcp -e 1040 -c 4 -i 35 -a 4 -x {4.1 0.3 -1 ------- null}
r -t 0.533 -s 0 -d 3 -p cbr -e 500 -c 1 -i 11 -a 1 -x {1.0 3.2 1 ------- null}
r -t 0.533 -s 0 -d 4 -p cbr -e 500 -c 2 -i 12 -a 2 -x {2.0 4.2 1 ------- null}
r -t 0.533 -s 0 -d 1 -p cbr -e 500 -c 4 -i 14 -a 4 -x {4.0 1.2 1 ------- null}
r -t 0.534 -s 0 -d 2 -p cbr -e 500 -c 0 -i 27 -a 0 -x {0.0 2.2 4 ------- null}
r -t 0.534 -s 1 -d 0 -p cbr -e 500 -c 1 -i 28 -a 1 -x {1.0 3.2 4 ------- null}
+ -t 0.534 -s 0 -d 3 -p cbr -e 500 -c 1 -i 28 -a 1 -x {1.0 3.2 4 ------- null}
- -t 0.534 -s 0 -d 3 -p cbr -e 500 -c 1 -i 28 -a 1 -x {1.0 3.2 4 ------- null}
h -t 0.534 -s 0 -d 3 -p cbr -e 500 -c 1 -i 28 -a 1 -x {1.0 3.2 -1 ------- null}
r -t 0.534 -s 2 -d 0 -p cbr -e 500 -c 2 -i 29 -a 2 -x {2.0 4.2 4 ------- null}
+ -t 0.534 -s 0 -d 4 -p cbr -e 500 -c 2 -i 29 -a 2 -x {2.0 4.2 4 ------- null}
- -t 0.534 -s 0 -d 4 -p cbr -e 500 -c 2 -i 29 -a 2 -x {2.0 4.2 4 ------- null}
h -t 0.534 -s 0 -d 4 -p cbr -e 500 -c 2 -i 29 -a 2 -x {2.0 4.2 -1 ------- null}
r -t 0.534 -s 3 -d 0 -p cbr -e 500 -c 3 -i 30 -a 3 -x {3.0 0.2 4 ------- null}
r -t 0.534 -s 4 -d 0 -p cbr -e 500 -c 4 -i 31 -a 4 -x {4.0 1.2 4 ------- null}
+ -t 0.534 -s 0 -d 1 -p cbr -e 500 -c 4 -i 31 -a 4 -x {4.0 1.2 4 ------- null}
r -t 0.53432 -s 3 -d 0 -p ack -e 40 -c 2 -i 32 -a 2 -x {3.3 2.1 0 ------- null}
+ -t 0.53432 -s 0 -d 2 -p ack -e 40 -c 2 -i 32 -a 2 -x {3.3 2.1 0 ------- null}
- -t 0.53432 -s 0 -d 2 -p ack -e 40 -c 2 -i 32 -a 2 -x {3.3 2.1 0 ------- null}
h -t 0.53432 -s 0 -d 2 -p ack -e 40 -c 2 -i 32 -a 2 -x {3.3 2.1 -1 ------- null}
r -t 0.53432 -s 4 -d 0 -p ack -e 40 -c 3 -i 33 -a 3 -x {4.3 3.1 0 ------- null}
+ -t 0.53432 -s 0 -d 3 -p ack -e 40 -c 3 -i 33 -a 3 -x {4.3 3.1 0 ------- null}
r -t 0.53464 -s 2 -d 0 -p ack -e 40 -c 1 -i 36 -a 1 -x {2.3 1.1 0 ------- null}
+ -t 0.53464 -s 0 -d 1 -p ack -e 40 -c 1 -i 36 -a 1 -x {2.3 1.1 0 ------- null}
+ -t 0.535 -s 0 -d 2 -p cbr -e 500 -c 0 -i 49 -a 0 -x {0.0 2.2 7 ------- null}
- -t 0.535 -s 0 -d 2 -p cbr -e 500 -c 0 -i 49 -a 0 -x {0.0 2.2 7 ------- null}
h -t 0.535 -s 0 -d 2 -p cbr -e 500 -c 0 -i 49 -a 0 -x {0.0 2.2 -1 ------- null}
+ -t 0.535 -s 1 -d 0 -p cbr -e 500 -c 1 -i 50 -a 1 -x {1.0 3.2 7 ------- null}
- -t 0.535 -s 1 -d 0 -p cbr -e 500 -c 1 -i 50 -a 1 -x {1.0 3.2 7 ------- null}
h -t 0.535 -s 1 -d 0 -p cbr -e 500 -c 1 -i 50 -a 1 -x {1.0 3.2 -1 ------- null}
+ -t 0.535 -s 2 -d 0 -p cbr -e 500 -c 2 -i 51 -a 2 -x {2.0 4.2 7 ------- null}
- -t 0.535 -s 2 -d 0 -p cbr -e 500 -c 2 -i 51 -a 2 -x {2.0 4.2 7 ------- null}
h -t 0.535 -s 2 -d 0 -p cbr -e 500 -c 2 -i 51 -a 2 -x {2.0 4.2 -1 ------- null}
+ -t 0.535 -s 3 -d 0 -p cbr -e 500 -c 3 -i 52 -a 3 -x {3.0 0.2 7 ------- null}
- -t 0.535 -s 3 -d 0 -p cbr -e 500 -c 3 -i 52 -a 3 -x {3.0 0.2 7 ------- null}
h -t 0.535 -s 3 -d 0 -p cbr -e 500 -c 3 -i 52 -a 3 -x {3.0 0.2 -1 ------- null}
+ -t 0.535 -s 4 -d 0 -p cbr -e 500 -c 4 -i 53 -a 4 -x {4.0 1.2 7 ------- null}
- -t 0.53632 -s 0 -d 1 -p tcp -e 1040 -c 0 -i 38 -a 0 -x {0.1 1.3 2 ------- null}
h -t 0.53632 -s 0 -d 1 -p tcp -e 1040 -c 0 -i 38 -a 0 -x {0.1 1.3 -1 ------- null}
r -t 0.538 -s 0 -d 3 -p cbr -e 500 -c 1 -i 16 -a 1 -x {1.0 3.2 2 ------- null}
r -t 0.538 -s 0 -d 4 -p cbr -e 500 -c 2 -i 17 -a 2 -x {2.0 4.2 2 ------- null}
r -t 0.538 -s 0 -d 1 -p cbr -e 500 -c 4 -i 19 -a 4 -x {4.0 1.2 2 ------- null}
- -t 0.538 -s 0 -d 3 -p ack -e 40 -c 3 -i 33 -a 3 -x {4.3 3.1 0 ------- null}
h -t 0.538 -s 0 -d 3 -p ack -e 40 -c 3 -i 33 -a 3 -x {4.3 3.1 -1 ------- null}
r -t 0.539 -s 0 -d 2 -p cbr -e 500 -c 0 -i 39 -a 0 -x {0.0 2.2 5 ------- null}
r -t 0.539 -s 1 -d 0 -p cbr -e 500 -c 1 -i 40 -a 1 -x {1.0 3.2 5 ------- null}
+ -t 0.539 -s 0 -d 3 -p cbr -e 500 -c 1 -i 40 -a 1 -x {1.0 3.2 5 ------- null}
- -t 0.539 -s 0 -d 3 -p cbr -e 500 -c 1 -i 40 -a 1 -x {1.0 3.2 5 ------- null}
h -t 0.539 -s 0 -d 3 -p cbr -e 500 -c 1 -i 40 -a 1 -x {1.0 3.2 -1 ------- null}
r -t 0.539 -s 2 -d 0 -p cbr -e 500 -c 2 -i 41 -a 2 -x {2.0 4.2 5 ------- null}
+ -t 0.539 -s 0 -d 4 -p cbr -e 500 -c 2 -i 41 -a 2 -x {2.0 4.2 5 ------- null}
- -t 0.539 -s 0 -d 4 -p cbr -e 500 -c 2 -i 41 -a 2 -x {2.0 4.2 5 ------- null}
h -t 0.539 -s 0 -d 4 -p cbr -e 500 -c 2 -i 41 -a 2 -x {2.0 4.2 -1 ------- null}
r -t 0.539 -s 3 -d 0 -p cbr -e 500 -c 3 -i 42 -a 3 -x {3.0 0.2 5 ------- null}
+ -t 0.54 -s 0 -d 2 -p cbr -e 500 -c 0 -i 54 -a 0 -x {0.0 2.2 8 ------- null}
- -t 0.54 -s 0 -d 2 -p cbr -e 500 -c 0 -i 54 -a 0 -x {0.0 2.2 8 ------- null}
h -t 0.54 -s 0 -d 2 -p cbr -e 500 -c 0 -i 54 -a 0 -x {0.0 2.2 -1 ------- null}
+ -t 0.54 -s 1 -d 0 -p cbr -e 500 -c 1 -i 55 -a 1 -x {1.0 3.2 8 ------- null}
- -t 0.54 -s 1 -d 0 -p cbr -e 500 -c 1 -i 55 -a 1 -x {1.0 3.2 8 ------- null}
h -t 0.54 -s 1 -d 0 -p cbr -e 500 -c 1 -i 55 -a 1 -x {1.0 3.2 -1 ------- null}
+ -t 0.54 -s 2 -d 0 -p cbr -e 500 -c 2 -i 56 -a 2 -x {2.0 4.2 8 ------- null}
- -t 0.54 -s 2 -d 0 -p cbr -e 500 -c 2 -i 56 -a 2 -x {2.0 4.2 8 ------- null}
h -t 0.54 -s 2 -d 0 -p cbr -e 500 -c 2 -i 56 -a 2 -x {2.0 4.2 -1 ------- null}
+ -t 0.54 -s 3 -d 0 -p cbr -e 500 -c 3 -i 57 -a 3 -x {3.0 0.2 8 ------- null}
- -t 0.54 -s 3 -d 0 -p cbr -e 500 -c 3 -i 57 -a 3 -x {3.0 0.2 8 ------- null}
h -t 0.54 -s 3 -d 0 -p cbr -e 500 -c 3 -i 57 -a 3 -x {3.0 0.2 -1 ------- null}
+ -t 0.54 -s 4 -d 0 -p cbr -e 500 -c 4 -i 58 -a 4 -x {4.0 1.2 8 ------- null}
- -t 0.54096 -s 4 -d 0 -p cbr -e 500 -c 4 -i 43 -a 4 -x {4.0 1.2 5 ------- null}
h -t 0.54096 -s 4 -d 0 -p cbr -e 500 -c 4 -i 43 -a 4 -x {4.0 1.2 -1 ------- null}
r -t 0.54264 -s 4 -d 0 -p tcp -e 1040 -c 4 -i 34 -a 4 -x {4.1 0.3 1 ------- null}
+ -t 0.54264 -s 0 -d 4 -p ack -e 40 -c 4 -i 59 -a 4 -x {0.3 4.1 1 ------- null}
r -t 0.543 -s 0 -d 3 -p cbr -e 500 -c 1 -i 23 -a 1 -x {1.0 3.2 3 ------- null}
r -t 0.543 -s 0 -d 4 -p cbr -e 500 -c 2 -i 24 -a 2 -x {2.0 4.2 3 ------- null}
- -t 0.543 -s 0 -d 4 -p ack -e 40 -c 4 -i 59 -a 4 -x {0.3 4.1 1 ------- null}
h -t 0.543 -s 0 -d 4 -p ack -e 40 -c 4 -i 59 -a 4 -x {0.3 4.1 -1 ------- null}
r -t 0.544 -s 0 -d 2 -p cbr -e 500 -c 0 -i 44 -a 0 -x {0.0 2.2 6 ------- null}
r -t 0.544 -s 1 -d 0 -p cbr -e 500 -c 1 -i 45 -a 1 -x {1.0 3.2 6 ------- null}
+ -t 0.544 -s 0 -d 3 -p cbr -e 500 -c 1 -i 45 -a 1 -x {1.0 3.2 6 ------- null}
- -t 0.544 -s 0 -d 3 -p cbr -e 500 -c 1 -i 45 -a 1 -x {1.0 3.2 6 ------- null}
h -t 0.544 -s 0 -d 3 -p cbr -e 500 -c 1 -i 45 -a 1 -x {1.0 3.2 -1 ------- null}
r -t 0.544 -s 2 -d 0 -p cbr -e 500 -c 2 -i 46 -a 2 -x {2.0 4.2 6 ------- null}
+ -t 0.544 -s 0 -d 4 -p cbr -e 500 -c 2 -i 46 -a 2 -x {2.0 4.2 6 ------- null}
- -t 0.544 -s 0 -d 4 -p cbr -e 500 -c 2 -i 46 -a 2 -x {2.0 4.2 6 ------- null}
h -t 0.544 -s 0 -d 4 -p cbr -e 500 -c 2 -i 46 -a 2 -x {2.0 4.2 -1 ------- null}
r -t 0.544 -s 3 -d 0 -p cbr -e 500 -c 3 -i 47 -a 3 -x {3.0 0.2 6 ------- null}
r -t 0.54464 -s 0 -d 2 -p ack -e 40 -c 2 -i 32 -a 2 -x {3.3 2.1 0 ------- null}
+ -t 0.54464 -s 2 -d 0 -p tcp -e 1040 -c 2 -i 60 -a 2 -x {2.1 3.3 1 ------- null}
- -t 0.54464 -s 2 -d 0 -p tcp -e 1040 -c 2 -i 60 -a 2 -x {2.1 3.3 1 ------- null}
h -t 0.54464 -s 2 -d 0 -p tcp -e 1040 -c 2 -i 60 -a 2 -x {2.1 3.3 -1 ------- null}
+ -t 0.54464 -s 2 -d 0 -p tcp -e 1040 -c 2 -i 61 -a 2 -x {2.1 3.3 2 ------- null}
- -t 0.54464 -s 0 -d 1 -p cbr -e 500 -c 4 -i 26 -a 4 -x {4.0 1.2 3 ------- null}
h -t 0.54464 -s 0 -d 1 -p cbr -e 500 -c 4 -i 26 -a 4 -x {4.0 1.2 -1 ------- null}
- -t 0.54496 -s 4 -d 0 -p cbr -e 500 -c 4 -i 48 -a 4 -x {4.0 1.2 6 ------- null}
h -t 0.54496 -s 4 -d 0 -p cbr -e 500 -c 4 -i 48 -a 4 -x {4.0 1.2 -1 ------- null}
+ -t 0.545 -s 0 -d 2 -p cbr -e 500 -c 0 -i 62 -a 0 -x {0.0 2.2 9 ------- null}
- -t 0.545 -s 0 -d 2 -p cbr -e 500 -c 0 -i 62 -a 0 -x {0.0 2.2 9 ------- null}
h -t 0.545 -s 0 -d 2 -p cbr -e 500 -c 0 -i 62 -a 0 -x {0.0 2.2 -1 ------- null}
+ -t 0.545 -s 1 -d 0 -p cbr -e 500 -c 1 -i 63 -a 1 -x {1.0 3.2 9 ------- null}
- -t 0.545 -s 1 -d 0 -p cbr -e 500 -c 1 -i 63 -a 1 -x {1.0 3.2 9 ------- null}
h -t 0.545 -s 1 -d 0 -p cbr -e 500 -c 1 -i 63 -a 1 -x {1.0 3.2 -1 ------- null}
+ -t 0.545 -s 2 -d 0 -p cbr -e 500 -c 2 -i 64 -a 2 -x {2.0 4.2 9 ------- null}
+ -t 0.545 -s 3 -d 0 -p cbr -e 500 -c 3 -i 65 -a 3 -x {3.0 0.2 9 ------- null}
- -t 0.545 -s 3 -d 0 -p cbr -e 500 -c 3 -i 65 -a 3 -x {3.0 0.2 9 ------- null}
h -t 0.545 -s 3 -d 0 -p cbr -e 500 -c 3 -i 65 -a 3 -x {3.0 0.2 -1 ------- null}
+ -t 0.545 -s 4 -d 0 -p cbr -e 500 -c 4 -i 66 -a 4 -x {4.0 1.2 9 ------- null}
r -t 0.54632 -s 0 -d 1 -p tcp -e 1040 -c 0 -i 37 -a 0 -x {0.1 1.3 1 ------- null}
+ -t 0.54632 -s 1 -d 0 -p ack -e 40 -c 0 -i 67 -a 0 -x {1.3 0.1 1 ------- null}
r -t 0.548 -s 0 -d 3 -p cbr -e 500 -c 1 -i 28 -a 1 -x {1.0 3.2 4 ------- null}
r -t 0.548 -s 0 -d 4 -p cbr -e 500 -c 2 -i 29 -a 2 -x {2.0 4.2 4 ------- null}
r -t 0.54832 -s 0 -d 3 -p ack -e 40 -c 3 -i 33 -a 3 -x {4.3 3.1 0 ------- null}
+ -t 0.54832 -s 3 -d 0 -p tcp -e 1040 -c 3 -i 68 -a 3 -x {3.1 4.3 1 ------- null}
+ -t 0.54832 -s 3 -d 0 -p tcp -e 1040 -c 3 -i 69 -a 3 -x {3.1 4.3 2 ------- null}
- -t 0.54864 -s 0 -d 1 -p cbr -e 500 -c 4 -i 31 -a 4 -x {4.0 1.2 4 ------- null}
h -t 0.54864 -s 0 -d 1 -p cbr -e 500 -c 4 -i 31 -a 4 -x {4.0 1.2 -1 ------- null}
- -t 0.54896 -s 4 -d 0 -p cbr -e 500 -c 4 -i 53 -a 4 -x {4.0 1.2 7 ------- null}
h -t 0.54896 -s 4 -d 0 -p cbr -e 500 -c 4 -i 53 -a 4 -x {4.0 1.2 -1 ------- null}
r -t 0.549 -s 0 -d 2 -p cbr -e 500 -c 0 -i 49 -a 0 -x {0.0 2.2 7 ------- null}
r -t 0.549 -s 1 -d 0 -p cbr -e 500 -c 1 -i 50 -a 1 -x {1.0 3.2 7 ------- null}
+ -t 0.549 -s 0 -d 3 -p cbr -e 500 -c 1 -i 50 -a 1 -x {1.0 3.2 7 ------- null}
- -t 0.549 -s 0 -d 3 -p cbr -e 500 -c 1 -i 50 -a 1 -x {1.0 3.2 7 ------- null}
h -t 0.549 -s 0 -d 3 -p cbr -e 500 -c 1 -i 50 -a 1 -x {1.0 3.2 -1 ------- null}
r -t 0.549 -s 2 -d 0 -p cbr -e 500 -c 2 -i 51 -a 2 -x {2.0 4.2 7 ------- null}
+ -t 0.549 -s 0 -d 4 -p cbr -e 500 -c 2 -i 51 -a 2 -x {2.0 4.2 7 ------- null}
- -t 0.549 -s 0 -d 4 -p cbr -e 500 -c 2 -i 51 -a 2 -x {2.0 4.2 7 ------- null}
h -t 0.549 -s 0 -d 4 -p cbr -e 500 -c 2 -i 51 -a 2 -x {2.0 4.2 -1 ------- null}
r -t 0.549 -s 3 -d 0 -p cbr -e 500 -c 3 -i 52 -a 3 -x {3.0 0.2 7 ------- null}
- -t 0.549 -s 1 -d 0 -p ack -e 40 -c 0 -i 67 -a 0 -x {1.3 0.1 1 ------- null}
h -t 0.549 -s 1 -d 0 -p ack -e 40 -c 0 -i 67 -a 0 -x {1.3 0.1 -1 ------- null}
- -t 0.549 -s 3 -d 0 -p tcp -e 1040 -c 3 -i 68 -a 3 -x {3.1 4.3 1 ------- null}
h -t 0.549 -s 3 -d 0 -p tcp -e 1040 -c 3 -i 68 -a 3 -x {3.1 4.3 -1 ------- null}
+ -t 0.55 -s 0 -d 2 -p cbr -e 500 -c 0 -i 70 -a 0 -x {0.0 2.2 10 ------- null}
- -t 0.55 -s 0 -d 2 -p cbr -e 500 -c 0 -i 70 -a 0 -x {0.0 2.2 10 ------- null}
h -t 0.55 -s 0 -d 2 -p cbr -e 500 -c 0 -i 70 -a 0 -x {0.0 2.2 -1 ------- null}
+ -t 0.55 -s 1 -d 0 -p cbr -e 500 -c 1 -i 71 -a 1 -x {1.0 3.2 10 ------- null}
- -t 0.55 -s 1 -d 0 -p cbr -e 500 -c 1 -i 71 -a 1 -x {1.0 3.2 10 ------- null}
h -t 0.55 -s 1 -d 0 -p cbr -e 500 -c 1 -i 71 -a 1 -x {1.0 3.2 -1 ------- null}
+ -t 0.55 -s 2 -d 0 -p cbr -e 500 -c 2 -i 72 -a 2 -x {2.0 4.2 10 ------- null}
+ -t 0.55 -s 3 -d 0 -p cbr -e 500 -c 3 -i 73 -a 3 -x {3.0 0.2 10 ------- null}
+ -t 0.55 -s 4 -d 0 -p cbr -e 500 -c 4 -i 74 -a 4 -x {4.0 1.2 10 ------- null}
r -t 0.55096 -s 4 -d 0 -p tcp -e 1040 -c 4 -i 35 -a 4 -x {4.1 0.3 2 ------- null}
+ -t 0.55096 -s 0 -d 4 -p ack -e 40 -c 4 -i 75 -a 4 -x {0.3 4.1 2 ------- null}
- -t 0.55264 -s 0 -d 1 -p ack -e 40 -c 1 -i 36 -a 1 -x {2.3 1.1 0 ------- null}
h -t 0.55264 -s 0 -d 1 -p ack -e 40 -c 1 -i 36 -a 1 -x {2.3 1.1 -1 ------- null}
- -t 0.55296 -s 2 -d 0 -p tcp -e 1040 -c 2 -i 61 -a 2 -x {2.1 3.3 2 ------- null}
h -t 0.55296 -s 2 -d 0 -p tcp -e 1040 -c 2 -i 61 -a 2 -x {2.1 3.3 -1 ------- null}
- -t 0.55296 -s 4 -d 0 -p cbr -e 500 -c 4 -i 58 -a 4 -x {4.0 1.2 8 ------- null}
h -t 0.55296 -s 4 -d 0 -p cbr -e 500 -c 4 -i 58 -a 4 -x {4.0 1.2 -1 ------- null}
r -t 0.553 -s 0 -d 3 -p cbr -e 500 -c 1 -i 40 -a 1 -x {1.0 3.2 5 ------- null}
r -t 0.553 -s 0 -d 4 -p cbr -e 500 -c 2 -i 41 -a 2 -x {2.0 4.2 5 ------- null}
- -t 0.553 -s 0 -d 4 -p ack -e 40 -c 4 -i 75 -a 4 -x {0.3 4.1 2 ------- null}
h -t 0.553 -s 0 -d 4 -p ack -e 40 -c 4 -i 75 -a 4 -x {0.3 4.1 -1 ------- null}