+ 0.5 0 1 tcp 40 ------- 0 0.1 1.3 0 0
- 0.5 0 1 tcp 40 ------- 0 0.1 1.3 0 0
+ 0.5 0 2 cbr 500 ------- 0 0.0 2.2 0 1
- 0.5 0 2 cbr 500 ------- 0 0.0 2.2 0 1
+ 0.5 1 0 tcp 40 ------- 1 1.1 2.3 0 2
- 0.5 1 0 tcp 40 ------- 1 1.1 2.3 0 2
+ 0.5 1 0 cbr 500 ------- 1 1.0 3.2 0 3
+ 0.5 2 0 tcp 40 ------- 2 2.1 3.3 0 4
- 0.5 2 0 tcp 40 ------- 2 2.1 3.3 0 4
+ 0.5 2 0 cbr 500 ------- 2 2.0 4.2 0 5
+ 0.5 3 0 tcp 40 ------- 3 3.1 4.3 0 6
- 0.5 3 0 tcp 40 ------- 3 3.1 4.3 0 6
+ 0.5 3 0 cbr 500 ------- 3 3.0 0.2 0 7
+ 0.5 4 0 tcp 40 ------- 4 4.1 0.3 0 8
- 0.5 4 0 tcp 40 ------- 4 4.1 0.3 0 8
+ 0.5 4 0 cbr 500 ------- 4 4.0 1.2 0 9
- 0.50032 1 0 cbr 500 ------- 1 1.0 3.2 0 3
- 0.50032 2 0 cbr 500 ------- 2 2.0 4.2 0 5
- 0.50032 3 0 cbr 500 ------- 3 3.0 0.2 0 7
- 0.50032 4 0 cbr 500 ------- 4 4.0 1.2 0 9
+ 0.505 0 2 cbr 500 ------- 0 0.0 2.2 1 10
- 0.505 0 2 cbr 500 ------- 0 0.0 2.2 1 10
+ 0.505 1 0 cbr 500 ------- 1 1.0 3.2 1 11
- 0.505 1 0 cbr 500 ------- 1 1.0 3.2 1 11
+ 0.505 2 0 cbr 500 ------- 2 2.0 4.2 1 12
- 0.505 2 0 cbr 500 ------- 2 2.0 4.2 1 12
+ 0.505 3 0 cbr 500 ------- 3 3.0 0.2 1 13
- 0.505 3 0 cbr 500 ------- 3 3.0 0.2 1 13
+ 0.505 4 0 cbr 500 ------- 4 4.0 1.2 1 14
- 0.505 4 0 cbr 500 ------- 4 4.0 1.2 1 14
+ 0.51 0 2 cbr 500 ------- 0 0.0 2.2 2 15
- 0.51 0 2 cbr 500 ------- 0 0.0 2.2 2 15
+ 0.51 1 0 cbr 500 ------- 1 1.0 3.2 2 16
- 0.51 1 0 cbr 500 ------- 1 1.0 3.2 2 16
+ 0.51 2 0 cbr 500 ------- 2 2.0 4.2 2 17
- 0.51 2 0 cbr 500 ------- 2 2.0 4.2 2 17
+ 0.51 3 0 cbr 500 ------- 3 3.0 0.2 2 18
- 0.51 3 0 cbr 500 ------- 3 3.0 0.2 2 18
+ 0.51 4 0 cbr 500 ------- 4 4.0 1.2 2 19
- 0.51 4 0 cbr 500 ------- 4 4.0 1.2 2 19
r 0.51032 0 1 tcp 40 ------- 0 0.1 1.3 0 0
+ 0.51032 1 0 ack 40 ------- 0 1.3 0.1 0 20
r 0.51032 1 0 tcp 40 ------- 1 1.1 2.3 0 2
+ 0.51032 0 2 tcp 40 ------- 1 1.1 2.3 0 2
r 0.51032 2 0 tcp 40 ------- 2 2.1 3.3 0 4
+ 0.51032 0 3 tcp 40 ------- 2 2.1 3.3 0 4
- 0.51032 0 3 tcp 40 ------- 2 2.1 3.3 0 4
r 0.51032 3 0 tcp 40 ------- 3 3.1 4.3 0 6
+ 0.51032 0 4 tcp 40 ------- 3 3.1 4.3 0 6
- 0.51032 0 4 tcp 40 ------- 3 3.1 4.3 0 6
r 0.51032 4 0 tcp 40 ------- 4 4.1 0.3 0 8
+ 0.51032 0 4 ack 40 ------- 4 0.3 4.1 0 21
- 0.51064 0 4 ack 40 ------- 4 0.3 4.1 0 21
r 0.514 0 2 cbr 500 ------- 0 0.0 2.2 0 1
- 0.514 0 2 tcp 40 ------- 1 1.1 2.3 0 2
- 0.514 1 0 ack 40 ------- 0 1.3 0.1 0 20
r 0.51432 1 0 cbr 500 ------- 1 1.0 3.2 0 3
+ 0.51432 0 3 cbr 500 ------- 1 1.0 3.2 0 3
- 0.51432 0 3 cbr 500 ------- 1 1.0 3.2 0 3
r 0.51432 2 0 cbr 500 ------- 2 2.0 4.2 0 5
+ 0.51432 0 4 cbr 500 ------- 2 2.0 4.2 0 5
- 0.51432 0 4 cbr 500 ------- 2 2.0 4.2 0 5
r 0.51432 3 0 cbr 500 ------- 3 3.0 0.2 0 7
r 0.51432 4 0 cbr 500 ------- 4 4.0 1.2 0 9
+ 0.51432 0 1 cbr 500 ------- 4 4.0 1.2 0 9
- 0.51432 0 1 cbr 500 ------- 4 4.0 1.2 0 9
+ 0.515 0 2 cbr 500 ------- 0 0.0 2.2 3 22
- 0.515 0 2 cbr 500 ------- 0 0.0 2.2 3 22
+ 0.515 1 0 cbr 500 ------- 1 1.0 3.2 3 23
- 0.515 1 0 cbr 500 ------- 1 1.0 3.2 3 23
+ 0.515 2 0 cbr 500 ------- 2 2.0 4.2 3 24
- 0.515 2 0 cbr 500 ------- 2 2.0 4.2 3 24
+ 0.515 3 0 cbr 500 ------- 3 3.0 0.2 3 25
- 0.515 3 0 cbr 500 ------- 3 3.0 0.2 3 25
+ 0.515 4 0 cbr 500 ------- 4 4.0 1.2 3 26
- 0.515 4 0 cbr 500 ------- 4 4.0 1.2 3 26
r 0.519 0 2 cbr 500 ------- 0 0.0 2.2 1 10
r 0.519 1 0 cbr 500 ------- 1 1.0 3.2 1 11
+ 0.519 0 3 cbr 500 ------- 1 1.0 3.2 1 11
- 0.519 0 3 cbr 500 ------- 1 1.0 3.2 1 11
r 0.519 2 0 cbr 500 ------- 2 2.0 4.2 1 12
+ 0.519 0 4 cbr 500 ------- 2 2.0 4.2 1 12
- 0.519 0 4 cbr 500 ------- 2 2.0 4.2 1 12
r 0.519 3 0 cbr 500 ------- 3 3.0 0.2 1 13
r 0.519 4 0 cbr 500 ------- 4 4.0 1.2 1 14
+ 0.519 0 1 cbr 500 ------- 4 4.0 1.2 1 14
- 0.519 0 1 cbr 500 ------- 4 4.0 1.2 1 14
+ 0.52 0 2 cbr 500 ------- 0 0.0 2.2 4 27
- 0.52 0 2 cbr 500 ------- 0 0.0 2.2 4 27
+ 0.52 1 0 cbr 500 ------- 1 1.0 3.2 4 28
- 0.52 1 0 cbr 500 ------- 1 1.0 3.2 4 28
+ 0.52 2 0 cbr 500 ------- 2 2.0 4.2 4 29
- 0.52 2 0 cbr 500 ------- 2 2.0 4.2 4 29
+ 0.52 3 0 cbr 500 ------- 3 3.0 0.2 4 30
- 0.52 3 0 cbr 500 ------- 3 3.0 0.2 4 30
+ 0.52 4 0 cbr 500 ------- 4 4.0 1.2 4 31
- 0.52 4 0 cbr 500 ------- 4 4.0 1.2 4 31
r 0.52064 0 3 tcp 40 ------- 2 2.1 3.3 0 4
+ 0.52064 3 0 ack 40 ------- 2 3.3 2.1 0 32
r 0.52064 0 4 tcp 40 ------- 3 3.1 4.3 0 6
+ 0.52064 4 0 ack 40 ------- 3 4.3 3.1 0 33
r 0.52096 0 4 ack 40 ------- 4 0.3 4.1 0 21
+ 0.52096 4 0 tcp 1040 ------- 4 4.1 0.3 1 34
+ 0.52096 4 0 tcp 1040 ------- 4 4.1 0.3 2 35
r 0.524 0 2 cbr 500 ------- 0 0.0 2.2 2 15
r 0.524 1 0 cbr 500 ------- 1 1.0 3.2 2 16
+ 0.524 0 3 cbr 500 ------- 1 1.0 3.2 2 16
- 0.524 0 3 cbr 500 ------- 1 1.0 3.2 2 16
r 0.524 2 0 cbr 500 ------- 2 2.0 4.2 2 17
+ 0.524 0 4 cbr 500 ------- 2 2.0 4.2 2 17
- 0.524 0 4 cbr 500 ------- 2 2.0 4.2 2 17
r 0.524 3 0 cbr 500 ------- 3 3.0 0.2 2 18
r 0.524 4 0 cbr 500 ------- 4 4.0 1.2 2 19
+ 0.524 0 1 cbr 500 ------- 4 4.0 1.2 2 19
- 0.524 0 1 cbr 500 ------- 4 4.0 1.2 2 19
- 0.524 3 0 ack 40 ------- 2 3.3 2.1 0 32
- 0.524 4 0 ack 40 ------- 3 4.3 3.1 0 33
r 0.52432 0 2 tcp 40 ------- 1 1.1 2.3 0 2
+ 0.52432 2 0 ack 40 ------- 1 2.3 1.1 0 36
- 0.52432 2 0 ack 40 ------- 1 2.3 1.1 0 36
r 0.52432 1 0 ack 40 ------- 0 1.3 0.1 0 20
+ 0.52432 0 1 tcp 1040 ------- 0 0.1 1.3 1 37
+ 0.52432 0 1 tcp 1040 ------- 0 0.1 1.3 2 38
- 0.52432 4 0 tcp 1040 ------- 4 4.1 0.3 1 34
+ 0.525 0 2 cbr 500 ------- 0 0.0 2.2 5 39
- 0.525 0 2 cbr 500 ------- 0 0.0 2.2 5 39
+ 0.525 1 0 cbr 500 ------- 1 1.0 3.2 5 40
- 0.525 1 0 cbr 500 ------- 1 1.0 3.2 5 40
+ 0.525 2 0 cbr 500 ------- 2 2.0 4.2 5 41
- 0.525 2 0 cbr 500 ------- 2 2.0 4.2 5 41
+ 0.525 3 0 cbr 500 ------- 3 3.0 0.2 5 42
- 0.525 3 0 cbr 500 ------- 3 3.0 0.2 5 42
+ 0.525 4 0 cbr 500 ------- 4 4.0 1.2 5 43
- 0.528 0 1 tcp 1040 ------- 0 0.1 1.3 1 37
r 0.52832 0 3 cbr 500 ------- 1 1.0 3.2 0 3
r 0.52832 0 4 cbr 500 ------- 2 2.0 4.2 0 5
r 0.52832 0 1 cbr 500 ------- 4 4.0 1.2 0 9
r 0.529 0 2 cbr 500 ------- 0 0.0 2.2 3 22
r 0.529 1 0 cbr 500 ------- 1 1.0 3.2 3 23
+ 0.529 0 3 cbr 500 ------- 1 1.0 3.2 3 23
- 0.529 0 3 cbr 500 ------- 1 1.0 3.2 3 23
r 0.529 2 0 cbr 500 ------- 2 2.0 4.2 3 24
+ 0.529 0 4 cbr 500 ------- 2 2.0 4.2 3 24
- 0.529 0 4 cbr 500 ------- 2 2.0 4.2 3 24
r 0.529 3 0 cbr 500 ------- 3 3.0 0.2 3 25
r 0.529 4 0 cbr 500 ------- 4 4.0 1.2 3 26
+ 0.529 0 1 cbr 500 ------- 4 4.0 1.2 3 26
+ 0.53 0 2 cbr 500 ------- 0 0.0 2.2 6 44
- 0.53 0 2 cbr 500 ------- 0 0.0 2.2 6 44
+ 0.53 1 0 cbr 500 ------- 1 1.0 3.2 6 45
- 0.53 1 0 cbr 500 ------- 1 1.0 3.2 6 45
+ 0.53 2 0 cbr 500 ------- 2 2.0 4.2 6 46
- 0.53 2 0 cbr 500 ------- 2 2.0 4.2 6 46
+ 0.53 3 0 cbr 500 ------- 3 3.0 0.2 6 47
- 0.53 3 0 cbr 500 ------- 3 3.0 0.2 6 47
+ 0.53 4 0 cbr 500 ------- 4 4.0 1.2 6 48
- 0.53264 4 0 tcp 1040 ------- 4 4.1 0.3 2 35
r 0.533 0 3 cbr 500 ------- 1 1.0 3.2 1 11
r 0.533 0 4 cbr 500 ------- 2 2.0 4.2 1 12
r 0.533 0 1 cbr 500 ------- 4 4.0 1.2 1 14
r 0.534 0 2 cbr 500 ------- 0 0.0 2.2 4 27
r 0.534 1 0 cbr 500 ------- 1 1.0 3.2 4 28
+ 0.534 0 3 cbr 500 ------- 1 1.0 3.2 4 28
- 0.534 0 3 cbr 500 ------- 1 1.0 3.2 4 28
r 0.534 2 0 cbr 500 ------- 2 2.0 4.2 4 29
+ 0.534 0 4 cbr 500 ------- 2 2.0 4.2 4 29
- 0.534 0 4 cbr 500 ------- 2 2.0 4.2 4 29
r 0.534 3 0 cbr 500 ------- 3 3.0 0.2 4 30
r 0.534 4 0 cbr 500 ------- 4 4.0 1.2 4 31
+ 0.534 0 1 cbr 500 ------- 4 4.0 1.2 4 31
r 0.53432 3 0 ack 40 ------- 2 3.3 2.1 0 32
+ 0.53432 0 2 ack 40 ------- 2 3.3 2.1 0 32
- 0.53432 0 2 ack 40 ------- 2 3.3 2.1 0 32
r 0.53432 4 0 ack 40 ------- 3 4.3 3.1 0 33
+ 0.53432 0 3 ack 40 ------- 3 4.3 3.1 0 33
r 0.53464 2 0 ack 40 ------- 1 2.3 1.1 0 36
+ 0.53464 0 1 ack 40 ------- 1 2.3 1.1 0 36
+ 0.535 0 2 cbr 500 ------- 0 0.0 2.2 7 49
- 0.535 0 2 cbr 500 ------- 0 0.0 2.2 7 49
+ 0.535 1 0 cbr 500 ------- 1 1.0 3.2 7 50
- 0.535 1 0 cbr 500 ------- 1 1.0 3.2 7 50
+ 0.535 2 0 cbr 500 ------- 2 2.0 4.2 7 51
- 0.535 2 0 cbr 500 ------- 2 2.0 4.2 7 51
+ 0.535 3 0 cbr 500 ------- 3 3.0 0.2 7 52
- 0.535 3 0 cbr 500 ------- 3 3.0 0.2 7 52
+ 0.535 4 0 cbr 500 ------- 4 4.0 1.2 7 53
- 0.53632 0 1 tcp 1040 ------- 0 0.1 1.3 2 38
r 0.538 0 3 cbr 500 ------- 1 1.0 3.2 2 16
r 0.538 0 4 cbr 500 ------- 2 2.0 4.2 2 17
r 0.538 0 1 cbr 500 ------- 4 4.0 1.2 2 19
- 0.538 0 3 ack 40 ------- 3 4.3 3.1 0 33
r 0.539 0 2 cbr 500 ------- 0 0.0 2.2 5 39
r 0.539 1 0 cbr 500 ------- 1 1.0 3.2 5 40
+ 0.539 0 3 cbr 500 ------- 1 1.0 3.2 5 40
- 0.539 0 3 cbr 500 ------- 1 1.0 3.2 5 40
r 0.539 2 0 cbr 500 ------- 2 2.0 4.2 5 41
+ 0.539 0 4 cbr 500 ------- 2 2.0 4.2 5 41
- 0.539 0 4 cbr 500 ------- 2 2.0 4.2 5 41
r 0.539 3 0 cbr 500 ------- 3 3.0 0.2 5 42
+ 0.54 0 2 cbr 500 ------- 0 0.0 2.2 8 54
- 0.54 0 2 cbr 500 ------- 0 0.0 2.2 8 54
+ 0.54 1 0 cbr 500 ------- 1 1.0 3.2 8 55
- 0.54 1 0 cbr 500 ------- 1 1.0 3.2 8 55
+ 0.54 2 0 cbr 500 ------- 2 2.0 4.2 8 56
- 0.54 2 0 cbr 500 ------- 2 2.0 4.2 8 56
+ 0.54 3 0 cbr 500 ------- 3 3.0 0.2 8 57
- 0.54 3 0 cbr 500 ------- 3 3.0 0.2 8 57
+ 0.54 4 0 cbr 500 ------- 4 4.0 1.2 8 58
- 0.54096 4 0 cbr 500 ------- 4 4.0 1.2 5 43
r 0.54264 4 0 tcp 1040 ------- 4 4.1 0.3 1 34
+ 0.54264 0 4 ack 40 ------- 4 0.3 4.1 1 59
r 0.543 0 3 cbr 500 ------- 1 1.0 3.2 3 23
r 0.543 0 4 cbr 500 ------- 2 2.0 4.2 3 24
- 0.543 0 4 ack 40 ------- 4 0.3 4.1 1 59
r 0.544 0 2 cbr 500 ------- 0 0.0 2.2 6 44
r 0.544 1 0 cbr 500 ------- 1 1.0 3.2 6 45
+ 0.544 0 3 cbr 500 ------- 1 1.0 3.2 6 45
- 0.544 0 3 cbr 500 ------- 1 1.0 3.2 6 45
r 0.544 2 0 cbr 500 ------- 2 2.0 4.2 6 46
+ 0.544 0 4 cbr 500 ------- 2 2.0 4.2 6 46
- 0.544 0 4 cbr 500 ------- 2 2.0 4.2 6 46
r 0.544 3 0 cbr 500 ------- 3 3.0 0.2 6 47
r 0.54464 0 2 ack 40 ------- 2 3.3 2.1 0 32
+ 0.54464 2 0 tcp 1040 ------- 2 2.1 3.3 1 60
- 0.54464 2 0 tcp 1040 ------- 2 2.1 3.3 1 60
+ 0.54464 2 0 tcp 1040 ------- 2 2.1 3.3 2 61
- 0.54464 0 1 cbr 500 ------- 4 4.0 1.2 3 26
- 0.54496 4 0 cbr 500 ------- 4 4.0 1.2 6 48
+ 0.545 0 2 cbr 500 ------- 0 0.0 2.2 9 62
- 0.545 0 2 cbr 500 ------- 0 0.0 2.2 9 62
+ 0.545 1 0 cbr 500 ------- 1 1.0 3.2 9 63
- 0.545 1 0 cbr 500 ------- 1 1.0 3.2 9 63
+ 0.545 2 0 cbr 500 ------- 2 2.0 4.2 9 64
+ 0.545 3 0 cbr 500 ------- 3 3.0 0.2 9 65
- 0.545 3 0 cbr 500 ------- 3 3.0 0.2 9 65
+ 0.545 4 0 cbr 500 ------- 4 4.0 1.2 9 66
r 0.54632 0 1 tcp 1040 ------- 0 0.1 1.3 1 37
+ 0.54632 1 0 ack 40 ------- 0 1.3 0.1 1 67
r 0.548 0 3 cbr 500 ------- 1 1.0 3.2 4 28
r 0.548 0 4 cbr 500 ------- 2 2.0 4.2 4 29
r 0.54832 0 3 ack 40 ------- 3 4.3 3.1 0 33
+ 0.54832 3 0 tcp 1040 ------- 3 3.1 4.3 1 68
+ 0.54832 3 0 tcp 1040 ------- 3 3.1 4.3 2 69
- 0.54864 0 1 cbr 500 ------- 4 4.0 1.2 4 31
- 0.54896 4 0 cbr 500 ------- 4 4.0 1.2 7 53
r 0.549 0 2 cbr 500 ------- 0 0.0 2.2 7 49
r 0.549 1 0 cbr 500 ------- 1 1.0 3.2 7 50
+ 0.549 0 3 cbr 500 ------- 1 1.0 3.2 7 50
- 0.549 0 3 cbr 500 ------- 1 1.0 3.2 7 50
r 0.549 2 0 cbr 500 ------- 2 2.0 4.2 7 51
+ 0.549 0 4 cbr 500 ------- 2 2.0 4.2 7 51
- 0.549 0 4 cbr 500 ------- 2 2.0 4.2 7 51
r 0.549 3 0 cbr 500 ------- 3 3.0 0.2 7 52
- 0.549 1 0 ack 40 ------- 0 1.3 0.1 1 67
- 0.549 3 0 tcp 1040 ------- 3 3.1 4.3 1 68
+ 0.55 0 2 cbr 500 ------- 0 0.0 2.2 10 70
- 0.55 0 2 cbr 500 ------- 0 0.0 2.2 10 70
+ 0.55 1 0 cbr 500 ------- 1 1.0 3.2 10 71
- 0.55 1 0 cbr 500 ------- 1 1.0 3.2 10 71
+ 0.55 2 0 cbr 500 ------- 2 2.0 4.2 10 72
+ 0.55 3 0 cbr 500 ------- 3 3.0 0.2 10 73
+ 0.55 4 0 cbr 500 ------- 4 4.0 1.2 10 74
r 0.55096 4 0 tcp 1040 ------- 4 4.1 0.3 2 35
+ 0.55096 0 4 ack 40 ------- 4 0.3 4.1 2 75
- 0.55264 0 1 ack 40 ------- 1 2.3 1.1 0 36
- 0.55296 2 0 tcp 1040 ------- 2 2.1 3.3 2 61
- 0.55296 4 0 cbr 500 ------- 4 4.0 1.2 8 58
r 0.553 0 3 cbr 500 ------- 1 1.0 3.2 5 40
r 0.553 0 4 cbr 500 ------- 2 2.0 4.2 5 41
- 0.553 0 4 ack 40 ------- 4 0.3 4.1 2 75
r 0.55332 0 4 ack 40 ------- 4 0.3 4.1 1 59
+ 0.55332 4 0 tcp 1040 ------- 4 4.1 0.3 3 76
+ 0.55332 4 0 tcp 1040 ------- 4 4.1 0.3 4 77
r 0.554 0 2 cbr 500 ------- 0 0.0 2.2 8 54
r 0.554 1 0 cbr 500 ------- 1 1.0 3.2 8 55
+ 0.554 0 3 cbr 500 ------- 1 1.0 3.2 8 55
- 0.554 0 3 cbr 500 ------- 1 1.0 3.2 8 55
r 0.554 2 0 cbr 500 ------- 2 2.0 4.2 8 56
+ 0.554 0 4 cbr 500 ------- 2 2.0 4.2 8 56
- 0.554 0 4 cbr 500 ------- 2 2.0 4.2 8 56
r 0.554 3 0 cbr 500 ------- 3 3.0 0.2 8 57
r 0.55464 0 1 tcp 1040 ------- 0 0.1 1.3 2 38
+ 0.55464 1 0 ack 40 ------- 0 1.3 0.1 2 78
- 0.55464 1 0 ack 40 ------- 0 1.3 0.1 2 78
r 0.55496 4 0 cbr 500 ------- 4 4.0 1.2 5 43
+ 0.55496 0 1 cbr 500 ------- 4 4.0 1.2 5 43
- 0.55496 0 1 cbr 500 ------- 4 4.0 1.2 5 43
+ 0.555 0 2 cbr 500 ------- 0 0.0 2.2 11 79
- 0.555 0 2 cbr 500 ------- 0 0.0 2.2 11 79
+ 0.555 1 0 cbr 500 ------- 1 1.0 3.2 11 80
- 0.555 1 0 cbr 500 ------- 1 1.0 3.2 11 80
+ 0.555 2 0 cbr 500 ------- 2 2.0 4.2 11 81
+ 0.555 3 0 cbr 500 ------- 3 3.0 0.2 11 82
+ 0.555 4 0 cbr 500 ------- 4 4.0 1.2 11 83
- 0.55696 4 0 cbr 500 ------- 4 4.0 1.2 9 66
- 0.55732 3 0 tcp 1040 ------- 3 3.1 4.3 2 69
r 0.558 0 3 cbr 500 ------- 1 1.0 3.2 6 45
r 0.558 0 4 cbr 500 ------- 2 2.0 4.2 6 46
r 0.55864 0 1 cbr 500 ------- 4 4.0 1.2 3 26
r 0.55896 4 0 cbr 500 ------- 4 4.0 1.2 6 48
+ 0.55896 0 1 cbr 500 ------- 4 4.0 1.2 6 48
- 0.55896 0 1 cbr 500 ------- 4 4.0 1.2 6 48
r 0.559 0 2 cbr 500 ------- 0 0.0 2.2 9 62
r 0.559 1 0 cbr 500 ------- 1 1.0 3.2 9 63
+ 0.559 0 3 cbr 500 ------- 1 1.0 3.2 9 63
- 0.559 0 3 cbr 500 ------- 1 1.0 3.2 9 63
r 0.559 3 0 cbr 500 ------- 3 3.0 0.2 9 65
r 0.55932 1 0 ack 40 ------- 0 1.3 0.1 1 67
+ 0.55932 0 1 tcp 1040 ------- 0 0.1 1.3 3 84
+ 0.55932 0 1 tcp 1040 ------- 0 0.1 1.3 4 85
+ 0.56 0 2 cbr 500 ------- 0 0.0 2.2 12 86
- 0.56 0 2 cbr 500 ------- 0 0.0 2.2 12 86
+ 0.56 1 0 cbr 500 ------- 1 1.0 3.2 12 87
- 0.56 1 0 cbr 500 ------- 1 1.0 3.2 12 87
+ 0.56 2 0 cbr 500 ------- 2 2.0 4.2 12 88
+ 0.56 3 0 cbr 500 ------- 3 3.0 0.2 12 89
+ 0.56 4 0 cbr 500 ------- 4 4.0 1.2 12 90
- 0.56096 4 0 cbr 500 ------- 4 4.0 1.2 10 74
- 0.56128 2 0 cbr 500 ------- 2 2.0 4.2 9 64
r 0.56264 0 1 cbr 500 ------- 4 4.0 1.2 4 31
r 0.56296 2 0 tcp 1040 ------- 2 2.1 3.3 1 60
+ 0.56296 0 3 tcp 1040 ------- 2 2.1 3.3 1 60
r 0.56296 4 0 cbr 500 ------- 4 4.0 1.2 7 53
+ 0.56296 0 1 cbr 500 ------- 4 4.0 1.2 7 53
r 0.56296 0 1 ack 40 ------- 1 2.3 1.1 0 36
+ 0.56296 1 0 tcp 1040 ------- 1 1.1 2.3 1 91
+ 0.56296 1 0 tcp 1040 ------- 1 1.1 2.3 2 92
- 0.56296 0 1 tcp 1040 ------- 0 0.1 1.3 3 84
r 0.563 0 3 cbr 500 ------- 1 1.0 3.2 7 50
r 0.563 0 4 cbr 500 ------- 2 2.0 4.2 7 51
- 0.563 0 3 tcp 1040 ------- 2 2.1 3.3 1 60
r 0.56332 0 4 ack 40 ------- 4 0.3 4.1 2 75
+ 0.56332 4 0 tcp 1040 ------- 4 4.1 0.3 5 93
+ 0.56332 4 0 tcp 1040 ------- 4 4.1 0.3 6 94
r 0.564 0 2 cbr 500 ------- 0 0.0 2.2 10 70
r 0.564 1 0 cbr 500 ------- 1 1.0 3.2 10 71
+ 0.564 0 3 cbr 500 ------- 1 1.0 3.2 10 71
- 0.564 1 0 tcp 1040 ------- 1 1.1 2.3 1 91
r 0.56496 1 0 ack 40 ------- 0 1.3 0.1 2 78
+ 0.56496 0 1 tcp 1040 ------- 0 0.1 1.3 5 95
+ 0.56496 0 1 tcp 1040 ------- 0 0.1 1.3 6 96
- 0.56496 4 0 tcp 1040 ------- 4 4.1 0.3 3 76
+ 0.565 0 2 cbr 500 ------- 0 0.0 2.2 13 97
- 0.565 0 2 cbr 500 ------- 0 0.0 2.2 13 97
+ 0.565 1 0 cbr 500 ------- 1 1.0 3.2 13 98
+ 0.565 2 0 cbr 500 ------- 2 2.0 4.2 13 99
+ 0.565 3 0 cbr 500 ------- 3 3.0 0.2 13 100
+ 0.565 4 0 cbr 500 ------- 4 4.0 1.2 13 101
- 0.56528 2 0 cbr 500 ------- 2 2.0 4.2 10 72
- 0.56564 3 0 cbr 500 ------- 3 3.0 0.2 10 73
r 0.56696 4 0 cbr 500 ------- 4 4.0 1.2 8 58
+ 0.56696 0 1 cbr 500 ------- 4 4.0 1.2 8 58
r 0.56732 3 0 tcp 1040 ------- 3 3.1 4.3 1 68
+ 0.56732 0 4 tcp 1040 ------- 3 3.1 4.3 1 68
- 0.56732 0 4 tcp 1040 ------- 3 3.1 4.3 1 68
r 0.568 0 3 cbr 500 ------- 1 1.0 3.2 8 55
r 0.568 0 4 cbr 500 ------- 2 2.0 4.2 8 56
r 0.56896 0 1 cbr 500 ------- 4 4.0 1.2 5 43
r 0.569 0 2 cbr 500 ------- 0 0.0 2.2 11 79
r 0.569 1 0 cbr 500 ------- 1 1.0 3.2 11 80
+ 0.569 0 3 cbr 500 ------- 1 1.0 3.2 11 80
- 0.56928 2 0 cbr 500 ------- 2 2.0 4.2 11 81
- 0.56964 3 0 cbr 500 ------- 3 3.0 0.2 11 82
+ 0.57 0 2 cbr 500 ------- 0 0.0 2.2 14 102
- 0.57 0 2 cbr 500 ------- 0 0.0 2.2 14 102
+ 0.57 1 0 cbr 500 ------- 1 1.0 3.2 14 103
+ 0.57 2 0 cbr 500 ------- 2 2.0 4.2 14 104
+ 0.57 3 0 cbr 500 ------- 3 3.0 0.2 14 105
+ 0.57 4 0 cbr 500 ------- 4 4.0 1.2 14 106
r 0.57096 4 0 cbr 500 ------- 4 4.0 1.2 9 66
+ 0.57096 0 1 cbr 500 ------- 4 4.0 1.2 9 66
r 0.57128 2 0 tcp 1040 ------- 2 2.1 3.3 2 61
+ 0.57128 0 3 tcp 1040 ------- 2 2.1 3.3 2 61
- 0.57128 0 1 tcp 1040 ------- 0 0.1 1.3 4 85
- 0.57132 0 3 cbr 500 ------- 1 1.0 3.2 10 71
- 0.57232 1 0 tcp 1040 ------- 1 1.1 2.3 2 92
r 0.57296 0 1 cbr 500 ------- 4 4.0 1.2 6 48
r 0.573 0 3 cbr 500 ------- 1 1.0 3.2 9 63
- 0.57328 4 0 tcp 1040 ------- 4 4.1 0.3 4 77
- 0.57328 2 0 cbr 500 ------- 2 2.0 4.2 12 88
- 0.57364 3 0 cbr 500 ------- 3 3.0 0.2 12 89
r 0.574 0 2 cbr 500 ------- 0 0.0 2.2 12 86
r 0.574 1 0 cbr 500 ------- 1 1.0 3.2 12 87
+ 0.574 0 3 cbr 500 ------- 1 1.0 3.2 12 87
r 0.57496 4 0 cbr 500 ------- 4 4.0 1.2 10 74
+ 0.57496 0 1 cbr 500 ------- 4 4.0 1.2 10 74
+ 0.575 0 2 cbr 500 ------- 0 0.0 2.2 15 107
- 0.575 0 2 cbr 500 ------- 0 0.0 2.2 15 107
+ 0.575 1 0 cbr 500 ------- 1 1.0 3.2 15 108
+ 0.575 2 0 cbr 500 ------- 2 2.0 4.2 15 109
+ 0.575 3 0 cbr 500 ------- 3 3.0 0.2 15 110
+ 0.575 4 0 cbr 500 ------- 4 4.0 1.2 15 111
r 0.57528 2 0 cbr 500 ------- 2 2.0 4.2 9 64
+ 0.57528 0 4 cbr 500 ------- 2 2.0 4.2 9 64
- 0.57532 0 3 cbr 500 ------- 1 1.0 3.2 11 80
r 0.57564 3 0 tcp 1040 ------- 3 3.1 4.3 2 69
+ 0.57564 0 4 tcp 1040 ------- 3 3.1 4.3 2 69
- 0.57564 0 4 cbr 500 ------- 2 2.0 4.2 9 64
- 0.57728 2 0 cbr 500 ------- 2 2.0 4.2 13 99
- 0.57764 3 0 cbr 500 ------- 3 3.0 0.2 13 100
r 0.579 0 2 cbr 500 ------- 0 0.0 2.2 13 97
r 0.57928 2 0 cbr 500 ------- 2 2.0 4.2 10 72
+ 0.57928 0 4 cbr 500 ------- 2 2.0 4.2 10 72
- 0.57932 0 3 tcp 1040 ------- 2 2.1 3.3 2 61
- 0.5796 0 1 cbr 500 ------- 4 4.0 1.2 7 53
r 0.57964 3 0 cbr 500 ------- 3 3.0 0.2 10 73
- 0.57964 0 4 tcp 1040 ------- 3 3.1 4.3 2 69
+ 0.58 0 2 cbr 500 ------- 0 0.0 2.2 16 112
- 0.58 0 2 cbr 500 ------- 0 0.0 2.2 16 112
+ 0.58 1 0 cbr 500 ------- 1 1.0 3.2 16 113
+ 0.58 2 0 cbr 500 ------- 2 2.0 4.2 16 114
+ 0.58 3 0 cbr 500 ------- 3 3.0 0.2 16 115
+ 0.58 4 0 cbr 500 ------- 4 4.0 1.2 16 116
- 0.58064 1 0 cbr 500 ------- 1 1.0 3.2 13 98
r 0.58128 0 1 tcp 1040 ------- 0 0.1 1.3 3 84
+ 0.58128 1 0 ack 40 ------- 0 1.3 0.1 3 117
- 0.58128 2 0 cbr 500 ------- 2 2.0 4.2 14 104
r 0.58132 0 3 tcp 1040 ------- 2 2.1 3.3 1 60
+ 0.58132 3 0 ack 40 ------- 2 3.3 2.1 1 118
- 0.5816 4 0 cbr 500 ------- 4 4.0 1.2 11 83
- 0.58164 3 0 cbr 500 ------- 3 3.0 0.2 14 105
r 0.58232 1 0 tcp 1040 ------- 1 1.1 2.3 1 91
+ 0.58232 0 2 tcp 1040 ------- 1 1.1 2.3 1 91
r 0.58328 4 0 tcp 1040 ------- 4 4.1 0.3 3 76
+ 0.58328 0 4 ack 40 ------- 4 0.3 4.1 3 119
r 0.58328 2 0 cbr 500 ------- 2 2.0 4.2 11 81
+ 0.58328 0 4 cbr 500 ------- 2 2.0 4.2 11 81
- 0.5836 0 1 tcp 1040 ------- 0 0.1 1.3 5 95
r 0.58364 3 0 cbr 500 ------- 3 3.0 0.2 11 82
r 0.584 0 2 cbr 500 ------- 0 0.0 2.2 14 102
- 0.584 0 2 tcp 1040 ------- 1 1.1 2.3 1 91
- 0.58464 1 0 cbr 500 ------- 1 1.0 3.2 14 103
+ 0.585 0 2 cbr 500 ------- 0 0.0 2.2 17 120
+ 0.585 1 0 cbr 500 ------- 1 1.0 3.2 17 121
+ 0.585 2 0 cbr 500 ------- 2 2.0 4.2 17 122
+ 0.585 3 0 cbr 500 ------- 3 3.0 0.2 17 123
+ 0.585 4 0 cbr 500 ------- 4 4.0 1.2 17 124
- 0.58528 2 0 cbr 500 ------- 2 2.0 4.2 15 109
r 0.58532 0 3 cbr 500 ------- 1 1.0 3.2 10 71
- 0.5856 4 0 cbr 500 ------- 4 4.0 1.2 12 90
r 0.58564 0 4 tcp 1040 ------- 3 3.1 4.3 1 68
+ 0.58564 4 0 ack 40 ------- 3 4.3 3.1 1 125
- 0.58564 3 0 cbr 500 ------- 3 3.0 0.2 15 110
r 0.58728 2 0 cbr 500 ------- 2 2.0 4.2 12 88
+ 0.58728 0 4 cbr 500 ------- 2 2.0 4.2 12 88
r 0.58764 3 0 cbr 500 ------- 3 3.0 0.2 12 89
- 0.58764 0 3 cbr 500 ------- 1 1.0 3.2 12 87
- 0.58796 0 4 cbr 500 ------- 2 2.0 4.2 10 72
- 0.58864 1 0 cbr 500 ------- 1 1.0 3.2 15 108
r 0.589 0 2 cbr 500 ------- 0 0.0 2.2 15 107
- 0.58928 2 0 cbr 500 ------- 2 2.0 4.2 16 114
r 0.58932 0 3 cbr 500 ------- 1 1.0 3.2 11 80
r 0.5896 0 1 tcp 1040 ------- 0 0.1 1.3 4 85
+ 0.5896 1 0 ack 40 ------- 0 1.3 0.1 4 126
- 0.5896 4 0 tcp 1040 ------- 4 4.1 0.3 5 93
r 0.58964 0 4 cbr 500 ------- 2 2.0 4.2 9 64
- 0.58964 3 0 cbr 500 ------- 3 3.0 0.2 16 115
+ 0.59 0 2 cbr 500 ------- 0 0.0 2.2 18 127
+ 0.59 1 0 cbr 500 ------- 1 1.0 3.2 18 128
+ 0.59 2 0 cbr 500 ------- 2 2.0 4.2 18 129
+ 0.59 3 0 cbr 500 ------- 3 3.0 0.2 18 130
+ 0.59 4 0 cbr 500 ------- 4 4.0 1.2 18 131
r 0.59064 1 0 tcp 1040 ------- 1 1.1 2.3 2 92
+ 0.59064 0 2 tcp 1040 ------- 1 1.1 2.3 2 92
r 0.59128 2 0 cbr 500 ------- 2 2.0 4.2 13 99
+ 0.59128 0 4 cbr 500 ------- 2 2.0 4.2 13 99
r 0.5916 4 0 tcp 1040 ------- 4 4.1 0.3 4 77
+ 0.5916 0 4 ack 40 ------- 4 0.3 4.1 4 132
r 0.59164 3 0 cbr 500 ------- 3 3.0 0.2 13 100
- 0.59192 0 1 tcp 1040 ------- 0 0.1 1.3 6 96
- 0.59196 0 4 ack 40 ------- 4 0.3 4.1 3 119
- 0.59228 0 4 cbr 500 ------- 2 2.0 4.2 11 81
- 0.59232 0 2 cbr 500 ------- 0 0.0 2.2 17 120
- 0.59264 1 0 cbr 500 ------- 1 1.0 3.2 16 113
- 0.59328 2 0 cbr 500 ------- 2 2.0 4.2 17 122
r 0.5936 0 1 cbr 500 ------- 4 4.0 1.2 7 53
- 0.59364 3 0 ack 40 ------- 2 3.3 2.1 1 118
- 0.59396 3 0 cbr 500 ------- 3 3.0 0.2 17 123
r 0.594 0 2 cbr 500 ------- 0 0.0 2.2 16 112
r 0.59464 1 0 cbr 500 ------- 1 1.0 3.2 13 98
+ 0.59464 0 3 cbr 500 ------- 1 1.0 3.2 13 98
- 0.59464 0 3 cbr 500 ------- 1 1.0 3.2 13 98
+ 0.595 0 2 cbr 500 ------- 0 0.0 2.2 19 133
+ 0.595 1 0 cbr 500 ------- 1 1.0 3.2 19 134
+ 0.595 2 0 cbr 500 ------- 2 2.0 4.2 19 135
+ 0.595 3 0 cbr 500 ------- 3 3.0 0.2 19 136
+ 0.595 4 0 cbr 500 ------- 4 4.0 1.2 19 137
r 0.59528 2 0 cbr 500 ------- 2 2.0 4.2 14 104
+ 0.59528 0 4 cbr 500 ------- 2 2.0 4.2 14 104
r 0.5956 4 0 cbr 500 ------- 4 4.0 1.2 11 83
+ 0.5956 0 1 cbr 500 ------- 4 4.0 1.2 11 83
r 0.59564 3 0 cbr 500 ------- 3 3.0 0.2 14 105
- 0.59628 0 4 cbr 500 ------- 2 2.0 4.2 12 88
- 0.59632 0 2 cbr 500 ------- 0 0.0 2.2 18 127
- 0.59664 1 0 ack 40 ------- 0 1.3 0.1 3 117
- 0.59696 1 0 cbr 500 ------- 1 1.0 3.2 17 121
- 0.59728 2 0 cbr 500 ------- 2 2.0 4.2 18 129
r 0.59764 0 3 tcp 1040 ------- 2 2.1 3.3 2 61
+ 0.59764 3 0 ack 40 ------- 2 3.3 2.1 2 138
- 0.59792 4 0 tcp 1040 ------- 4 4.1 0.3 6 94
r 0.59796 0 4 tcp 1040 ------- 3 3.1 4.3 2 69
+ 0.59796 4 0 ack 40 ------- 3 4.3 3.1 2 139
- 0.59796 3 0 cbr 500 ------- 3 3.0 0.2 18 130
r 0.59864 1 0 cbr 500 ------- 1 1.0 3.2 14 103
+ 0.59864 0 3 cbr 500 ------- 1 1.0 3.2 14 103
- 0.59864 0 3 cbr 500 ------- 1 1.0 3.2 14 103
r 0.59928 2 0 cbr 500 ------- 2 2.0 4.2 15 109
+ 0.59928 0 4 cbr 500 ------- 2 2.0 4.2 15 109
r 0.5996 4 0 cbr 500 ------- 4 4.0 1.2 12 90
+ 0.5996 0 1 cbr 500 ------- 4 4.0 1.2 12 90
r 0.59964 3 0 cbr 500 ------- 3 3.0 0.2 15 110
+ 0.6 0 2 cbr 500 ------- 0 0.0 2.2 20 140
+ 0.6 1 0 cbr 500 ------- 1 1.0 3.2 20 141
+ 0.6 2 0 cbr 500 ------- 2 2.0 4.2 20 142
+ 0.6 3 0 cbr 500 ------- 3 3.0 0.2 20 143
+ 0.6 4 0 cbr 500 ------- 4 4.0 1.2 20 144
- 0.60024 0 1 cbr 500 ------- 4 4.0 1.2 8 58
- 0.60028 0 4 cbr 500 ------- 2 2.0 4.2 13 99
- 0.60032 0 2 tcp 1040 ------- 1 1.1 2.3 2 92
- 0.60096 1 0 ack 40 ------- 0 1.3 0.1 4 126
- 0.60128 2 0 cbr 500 ------- 2 2.0 4.2 19 135
- 0.60128 1 0 cbr 500 ------- 1 1.0 3.2 18 128
r 0.60164 0 3 cbr 500 ------- 1 1.0 3.2 12 87
r 0.60192 0 1 tcp 1040 ------- 0 0.1 1.3 5 95
+ 0.60192 1 0 ack 40 ------- 0 1.3 0.1 5 145
r 0.60196 0 4 cbr 500 ------- 2 2.0 4.2 10 72
- 0.60196 3 0 cbr 500 ------- 3 3.0 0.2 19 136
r 0.60228 0 4 ack 40 ------- 4 0.3 4.1 3 119
+ 0.60228 4 0 tcp 1040 ------- 4 4.1 0.3 7 146
+ 0.60228 4 0 tcp 1040 ------- 4 4.1 0.3 8 147
r 0.60232 0 2 tcp 1040 ------- 1 1.1 2.3 1 91
+ 0.60232 2 0 ack 40 ------- 1 2.3 1.1 1 148
r 0.60264 1 0 cbr 500 ------- 1 1.0 3.2 15 108
+ 0.60264 0 3 cbr 500 ------- 1 1.0 3.2 15 108
- 0.60264 0 3 cbr 500 ------- 1 1.0 3.2 15 108
r 0.60328 2 0 cbr 500 ------- 2 2.0 4.2 16 114
+ 0.60328 0 4 cbr 500 ------- 2 2.0 4.2 16 114
r 0.60364 3 0 cbr 500 ------- 3 3.0 0.2 16 115
r 0.60396 3 0 ack 40 ------- 2 3.3 2.1 1 118
+ 0.60396 0 2 ack 40 ------- 2 3.3 2.1 1 118
- 0.60424 0 1 cbr 500 ------- 4 4.0 1.2 9 66
- 0.60428 0 4 ack 40 ------- 4 0.3 4.1 4 132
- 0.6046 0 4 cbr 500 ------- 2 2.0 4.2 14 104
+ 0.605 0 2 cbr 500 ------- 0 0.0 2.2 21 149
+ 0.605 1 0 cbr 500 ------- 1 1.0 3.2 21 150
+ 0.605 2 0 cbr 500 ------- 2 2.0 4.2 21 151
+ 0.605 3 0 cbr 500 ------- 3 3.0 0.2 21 152
+ 0.605 4 0 cbr 500 ------- 4 4.0 1.2 21 153
- 0.60528 2 0 cbr 500 ------- 2 2.0 4.2 20 142
- 0.60528 1 0 cbr 500 ------- 1 1.0 3.2 19 134
- 0.60596 3 0 ack 40 ------- 2 3.3 2.1 2 138
- 0.60624 4 0 cbr 500 ------- 4 4.0 1.2 13 101
r 0.60628 0 4 cbr 500 ------- 2 2.0 4.2 11 81
- 0.60628 3 0 cbr 500 ------- 3 3.0 0.2 20 143
r 0.60632 0 2 cbr 500 ------- 0 0.0 2.2 17 120
r 0.60664 1 0 cbr 500 ------- 1 1.0 3.2 16 113
+ 0.60664 0 3 cbr 500 ------- 1 1.0 3.2 16 113
- 0.60664 0 3 cbr 500 ------- 1 1.0 3.2 16 113
r 0.60696 1 0 ack 40 ------- 0 1.3 0.1 3 117
+ 0.60696 0 1 tcp 1040 ------- 0 0.1 1.3 7 154
+ 0.60696 0 1 tcp 1040 ------- 0 0.1 1.3 8 155
r 0.60728 2 0 cbr 500 ------- 2 2.0 4.2 17 122
+ 0.60728 0 4 cbr 500 ------- 2 2.0 4.2 17 122
r 0.60792 4 0 tcp 1040 ------- 4 4.1 0.3 5 93
+ 0.60792 0 4 ack 40 ------- 4 0.3 4.1 5 156
r 0.60796 3 0 cbr 500 ------- 3 3.0 0.2 17 123
- 0.60824 0 1 cbr 500 ------- 4 4.0 1.2 10 74
- 0.6086 0 4 cbr 500 ------- 2 2.0 4.2 15 109
r 0.60864 0 3 cbr 500 ------- 1 1.0 3.2 13 98
- 0.60864 0 2 cbr 500 ------- 0 0.0 2.2 19 133
- 0.60928 2 0 ack 40 ------- 1 2.3 1.1 1 148
- 0.60928 1 0 cbr 500 ------- 1 1.0 3.2 20 141
- 0.6096 2 0 cbr 500 ------- 2 2.0 4.2 21 151
+ 0.61 0 2 cbr 500 ------- 0 0.0 2.2 22 157
+ 0.61 1 0 cbr 500 ------- 1 1.0 3.2 22 158
+ 0.61 2 0 cbr 500 ------- 2 2.0 4.2 22 159
+ 0.61 3 0 cbr 500 ------- 3 3.0 0.2 22 160
+ 0.61 4 0 cbr 500 ------- 4 4.0 1.2 22 161
r 0.61024 0 1 tcp 1040 ------- 0 0.1 1.3 6 96
+ 0.61024 1 0 ack 40 ------- 0 1.3 0.1 6 162
- 0.61024 4 0 cbr 500 ------- 4 4.0 1.2 14 106
r 0.61028 0 4 cbr 500 ------- 2 2.0 4.2 12 88
- 0.61028 3 0 cbr 500 ------- 3 3.0 0.2 21 152
r 0.61032 0 2 cbr 500 ------- 0 0.0 2.2 18 127
r 0.61096 1 0 cbr 500 ------- 1 1.0 3.2 17 121
+ 0.61096 0 3 cbr 500 ------- 1 1.0 3.2 17 121
- 0.61096 0 3 cbr 500 ------- 1 1.0 3.2 17 121
r 0.61128 2 0 cbr 500 ------- 2 2.0 4.2 18 129
+ 0.61128 0 4 cbr 500 ------- 2 2.0 4.2 18 129
r 0.61128 1 0 ack 40 ------- 0 1.3 0.1 4 126
+ 0.61128 0 1 tcp 1040 ------- 0 0.1 1.3 9 163
+ 0.61128 0 1 tcp 1040 ------- 0 0.1 1.3 10 164
r 0.61196 3 0 cbr 500 ------- 3 3.0 0.2 18 130
- 0.61224 0 1 cbr 500 ------- 4 4.0 1.2 11 83
- 0.6126 0 4 cbr 500 ------- 2 2.0 4.2 16 114
r 0.61264 0 3 cbr 500 ------- 1 1.0 3.2 14 103
- 0.61264 0 2 cbr 500 ------- 0 0.0 2.2 20 140
- 0.61328 1 0 ack 40 ------- 0 1.3 0.1 5 145
- 0.6136 2 0 cbr 500 ------- 2 2.0 4.2 22 159
- 0.6136 1 0 cbr 500 ------- 1 1.0 3.2 21 150
r 0.61424 0 1 cbr 500 ------- 4 4.0 1.2 8 58
- 0.61424 4 0 cbr 500 ------- 4 4.0 1.2 15 111
r 0.61428 0 4 cbr 500 ------- 2 2.0 4.2 13 99
- 0.61428 3 0 cbr 500 ------- 3 3.0 0.2 22 160
r 0.6146 0 4 ack 40 ------- 4 0.3 4.1 4 132
+ 0.6146 4 0 tcp 1040 ------- 4 4.1 0.3 9 165
+ 0.6146 4 0 tcp 1040 ------- 4 4.1 0.3 10 166
+ 0.615 0 2 cbr 500 ------- 0 0.0 2.2 23 167
+ 0.615 1 0 cbr 500 ------- 1 1.0 3.2 23 168
+ 0.615 2 0 cbr 500 ------- 2 2.0 4.2 23 169
+ 0.615 3 0 cbr 500 ------- 3 3.0 0.2 23 170
+ 0.615 4 0 cbr 500 ------- 4 4.0 1.2 23 171
r 0.61528 2 0 cbr 500 ------- 2 2.0 4.2 19 135
+ 0.61528 0 4 cbr 500 ------- 2 2.0 4.2 19 135
r 0.61528 1 0 cbr 500 ------- 1 1.0 3.2 18 128
+ 0.61528 0 3 cbr 500 ------- 1 1.0 3.2 18 128
- 0.61528 0 3 cbr 500 ------- 1 1.0 3.2 18 128
r 0.61596 3 0 cbr 500 ------- 3 3.0 0.2 19 136
r 0.61624 4 0 tcp 1040 ------- 4 4.1 0.3 6 94
+ 0.61624 0 4 ack 40 ------- 4 0.3 4.1 6 172
- 0.61624 0 1 cbr 500 ------- 4 4.0 1.2 12 90
r 0.61628 3 0 ack 40 ------- 2 3.3 2.1 2 138
+ 0.61628 0 2 ack 40 ------- 2 3.3 2.1 2 138
- 0.6166 0 4 cbr 500 ------- 2 2.0 4.2 17 122
r 0.61664 0 3 cbr 500 ------- 1 1.0 3.2 15 108
- 0.61664 0 2 ack 40 ------- 2 3.3 2.1 1 118
- 0.61696 0 2 cbr 500 ------- 0 0.0 2.2 21 149
- 0.6176 2 0 cbr 500 ------- 2 2.0 4.2 23 169
- 0.6176 1 0 cbr 500 ------- 1 1.0 3.2 22 158
r 0.61824 0 1 cbr 500 ------- 4 4.0 1.2 9 66
- 0.61824 4 0 cbr 500 ------- 4 4.0 1.2 16 116
- 0.61828 3 0 cbr 500 ------- 3 3.0 0.2 23 170
r 0.6186 0 4 cbr 500 ------- 2 2.0 4.2 14 104
r 0.61864 0 2 tcp 1040 ------- 1 1.1 2.3 2 92
+ 0.61864 2 0 ack 40 ------- 1 2.3 1.1 2 173
r 0.61928 2 0 cbr 500 ------- 2 2.0 4.2 20 142
+ 0.61928 0 4 cbr 500 ------- 2 2.0 4.2 20 142
r 0.61928 1 0 cbr 500 ------- 1 1.0 3.2 19 134
+ 0.61928 0 3 cbr 500 ------- 1 1.0 3.2 19 134
- 0.61928 0 3 cbr 500 ------- 1 1.0 3.2 19 134
r 0.6196 2 0 ack 40 ------- 1 2.3 1.1 1 148
+ 0.6196 0 1 ack 40 ------- 1 2.3 1.1 1 148
+ 0.62 0 2 cbr 500 ------- 0 0.0 2.2 24 174
+ 0.62 1 0 cbr 500 ------- 1 1.0 3.2 24 175
+ 0.62 2 0 cbr 500 ------- 2 2.0 4.2 24 176
+ 0.62 3 0 cbr 500 ------- 3 3.0 0.2 24 177
+ 0.62 4 0 cbr 500 ------- 4 4.0 1.2 24 178
r 0.62024 4 0 cbr 500 ------- 4 4.0 1.2 13 101
+ 0.62024 0 1 cbr 500 ------- 4 4.0 1.2 13 101
- 0.62024 0 1 tcp 1040 ------- 0 0.1 1.3 7 154
r 0.62028 3 0 cbr 500 ------- 3 3.0 0.2 20 143
- 0.6206 0 4 ack 40 ------- 4 0.3 4.1 5 156
r 0.62064 0 3 cbr 500 ------- 1 1.0 3.2 16 113
- 0.62092 0 4 cbr 500 ------- 2 2.0 4.2 18 129
- 0.62096 0 2 cbr 500 ------- 0 0.0 2.2 22 157
- 0.6216 2 0 ack 40 ------- 1 2.3 1.1 2 173
- 0.6216 1 0 ack 40 ------- 0 1.3 0.1 6 162
- 0.62192 2 0 cbr 500 ------- 2 2.0 4.2 24 176
- 0.62192 1 0 cbr 500 ------- 1 1.0 3.2 23 168
r 0.62224 0 1 cbr 500 ------- 4 4.0 1.2 10 74
- 0.62224 4 0 cbr 500 ------- 4 4.0 1.2 17 124
- 0.62228 3 0 cbr 500 ------- 3 3.0 0.2 24 177
r 0.6226 0 4 cbr 500 ------- 2 2.0 4.2 15 109
r 0.62264 0 2 cbr 500 ------- 0 0.0 2.2 19 133
r 0.62328 1 0 cbr 500 ------- 1 1.0 3.2 20 141
+ 0.62328 0 3 cbr 500 ------- 1 1.0 3.2 20 141
- 0.62328 0 3 cbr 500 ------- 1 1.0 3.2 20 141
r 0.6236 2 0 cbr 500 ------- 2 2.0 4.2 21 151
+ 0.6236 0 4 cbr 500 ------- 2 2.0 4.2 21 151
r 0.6236 1 0 ack 40 ------- 0 1.3 0.1 5 145
+ 0.6236 0 1 tcp 1040 ------- 0 0.1 1.3 11 179
+ 0.6236 0 1 tcp 1040 ------- 0 0.1 1.3 12 180
r 0.62424 4 0 cbr 500 ------- 4 4.0 1.2 14 106
+ 0.62424 0 1 cbr 500 ------- 4 4.0 1.2 14 106