V -t * -v 1.0a5 -a 0
A -t * -n 1 -p 0 -o 0x7fffffff -c 30 -a 1
A -t * -h 1 -m 1073741823 -s 0
c -t * -i 0 -n Blue
c -t * -i 1 -n Red
c -t * -i 2 -n Green
c -t * -i 3 -n Orange
n -t * -a 0 -s 0 -S UP -v circle -c blue -i blue
n -t * -a 1 -s 1 -S UP -v circle -c red -i red
n -t * -a 2 -s 2 -S UP -v circle -c green -i green
n -t * -a 3 -s 3 -S UP -v circle -c orange -i orange
l -t * -s 0 -d 2 -S UP -r 1000000 -D 0.01 -c black
l -t * -s 0 -d 3 -S UP -r 1000000 -D 0.01 -c black
l -t * -s 1 -d 3 -S UP -r 1000000 -D 0.01 -c black
l -t * -s 0 -d 1 -S UP -r 1000000 -D 0.01 -c black -o right
l -t * -s 1 -d 2 -S UP -r 1000000 -D 0.01 -c black -o down
l -t * -s 2 -d 3 -S UP -r 1000000 -D 0.01 -c black -o left
n -t 0 -s 0 -S DLABEL -l "node0" -L ""
n -t 0 -s 1 -S DLABEL -l "node1" -L ""
n -t 0 -s 2 -S DLABEL -l "node2" -L ""
n -t 0 -s 3 -S DLABEL -l "node3" -L ""
+ -t 0.5 -s 0 -d 1 -p tcp -e 40 -c 0 -i 0 -a 0 -x {0.1 1.3 0 ------- null}
- -t 0.5 -s 0 -d 1 -p tcp -e 40 -c 0 -i 0 -a 0 -x {0.1 1.3 0 ------- null}
h -t 0.5 -s 0 -d 1 -p tcp -e 40 -c 0 -i 0 -a 0 -x {0.1 1.3 -1 ------- null}
+ -t 0.5 -s 0 -d 2 -p cbr -e 500 -c 0 -i 1 -a 0 -x {0.0 2.2 0 ------- null}
- -t 0.5 -s 0 -d 2 -p cbr -e 500 -c 0 -i 1 -a 0 -x {0.0 2.2 0 ------- null}
h -t 0.5 -s 0 -d 2 -p cbr -e 500 -c 0 -i 1 -a 0 -x {0.0 2.2 -1 ------- null}
+ -t 0.5 -s 1 -d 2 -p tcp -e 40 -c 1 -i 2 -a 1 -x {1.1 2.3 0 ------- null}
- -t 0.5 -s 1 -d 2 -p tcp -e 40 -c 1 -i 2 -a 1 -x {1.1 2.3 0 ------- null}
h -t 0.5 -s 1 -d 2 -p tcp -e 40 -c 1 -i 2 -a 1 -x {1.1 2.3 -1 ------- null}
+ -t 0.5 -s 1 -d 3 -p cbr -e 500 -c 1 -i 3 -a 1 -x {1.0 3.2 0 ------- null}
- -t 0.5 -s 1 -d 3 -p cbr -e 500 -c 1 -i 3 -a 1 -x {1.0 3.2 0 ------- null}
h -t 0.5 -s 1 -d 3 -p cbr -e 500 -c 1 -i 3 -a 1 -x {1.0 3.2 -1 ------- null}
+ -t 0.5 -s 2 -d 3 -p tcp -e 40 -c 2 -i 4 -a 2 -x {2.1 3.3 0 ------- null}
- -t 0.5 -s 2 -d 3 -p tcp -e 40 -c 2 -i 4 -a 2 -x {2.1 3.3 0 ------- null}
h -t 0.5 -s 2 -d 3 -p tcp -e 40 -c 2 -i 4 -a 2 -x {2.1 3.3 -1 ------- null}
+ -t 0.5 -s 2 -d 0 -p cbr -e 500 -c 2 -i 5 -a 2 -x {2.0 0.2 0 ------- null}
- -t 0.5 -s 2 -d 0 -p cbr -e 500 -c 2 -i 5 -a 2 -x {2.0 0.2 0 ------- null}
h -t 0.5 -s 2 -d 0 -p cbr -e 500 -c 2 -i 5 -a 2 -x {2.0 0.2 -1 ------- null}
+ -t 0.5 -s 3 -d 0 -p tcp -e 40 -c 3 -i 6 -a 3 -x {3.1 0.3 0 ------- null}
- -t 0.5 -s 3 -d 0 -p tcp -e 40 -c 3 -i 6 -a 3 -x {3.1 0.3 0 ------- null}
h -t 0.5 -s 3 -d 0 -p tcp -e 40 -c 3 -i 6 -a 3 -x {3.1 0.3 -1 ------- null}
+ -t 0.5 -s 3 -d 1 -p cbr -e 500 -c 3 -i 7 -a 3 -x {3.0 1.2 0 ------- null}
- -t 0.5 -s 3 -d 1 -p cbr -e 500 -c 3 -i 7 -a 3 -x {3.0 1.2 0 ------- null}
h -t 0.5 -s 3 -d 1 -p cbr -e 500 -c 3 -i 7 -a 3 -x {3.0 1.2 -1 ------- null}
+ -t 0.505 -s 0 -d 2 -p cbr -e 500 -c 0 -i 8 -a 0 -x {0.0 2.2 1 ------- null}
- -t 0.505 -s 0 -d 2 -p cbr -e 500 -c 0 -i 8 -a 0 -x {0.0 2.2 1 ------- null}
h -t 0.505 -s 0 -d 2 -p cbr -e 500 -c 0 -i 8 -a 0 -x {0.0 2.2 -1 ------- null}
+ -t 0.505 -s 1 -d 3 -p cbr -e 500 -c 1 -i 9 -a 1 -x {1.0 3.2 1 ------- null}
- -t 0.505 -s 1 -d 3 -p cbr -e 500 -c 1 -i 9 -a 1 -x {1.0 3.2 1 ------- null}
h -t 0.505 -s 1 -d 3 -p cbr -e 500 -c 1 -i 9 -a 1 -x {1.0 3.2 -1 ------- null}
+ -t 0.505 -s 2 -d 0 -p cbr -e 500 -c 2 -i 10 -a 2 -x {2.0 0.2 1 ------- null}
- -t 0.505 -s 2 -d 0 -p cbr -e 500 -c 2 -i 10 -a 2 -x {2.0 0.2 1 ------- null}
h -t 0.505 -s 2 -d 0 -p cbr -e 500 -c 2 -i 10 -a 2 -x {2.0 0.2 -1 ------- null}
+ -t 0.505 -s 3 -d 1 -p cbr -e 500 -c 3 -i 11 -a 3 -x {3.0 1.2 1 ------- null}
- -t 0.505 -s 3 -d 1 -p cbr -e 500 -c 3 -i 11 -a 3 -x {3.0 1.2 1 ------- null}
h -t 0.505 -s 3 -d 1 -p cbr -e 500 -c 3 -i 11 -a 3 -x {3.0 1.2 -1 ------- null}
+ -t 0.51 -s 0 -d 2 -p cbr -e 500 -c 0 -i 12 -a 0 -x {0.0 2.2 2 ------- null}
- -t 0.51 -s 0 -d 2 -p cbr -e 500 -c 0 -i 12 -a 0 -x {0.0 2.2 2 ------- null}
h -t 0.51 -s 0 -d 2 -p cbr -e 500 -c 0 -i 12 -a 0 -x {0.0 2.2 -1 ------- null}
+ -t 0.51 -s 1 -d 3 -p cbr -e 500 -c 1 -i 13 -a 1 -x {1.0 3.2 2 ------- null}
- -t 0.51 -s 1 -d 3 -p cbr -e 500 -c 1 -i 13 -a 1 -x {1.0 3.2 2 ------- null}
h -t 0.51 -s 1 -d 3 -p cbr -e 500 -c 1 -i 13 -a 1 -x {1.0 3.2 -1 ------- null}
+ -t 0.51 -s 2 -d 0 -p cbr -e 500 -c 2 -i 14 -a 2 -x {2.0 0.2 2 ------- null}
- -t 0.51 -s 2 -d 0 -p cbr -e 500 -c 2 -i 14 -a 2 -x {2.0 0.2 2 ------- null}
h -t 0.51 -s 2 -d 0 -p cbr -e 500 -c 2 -i 14 -a 2 -x {2.0 0.2 -1 ------- null}
+ -t 0.51 -s 3 -d 1 -p cbr -e 500 -c 3 -i 15 -a 3 -x {3.0 1.2 2 ------- null}
- -t 0.51 -s 3 -d 1 -p cbr -e 500 -c 3 -i 15 -a 3 -x {3.0 1.2 2 ------- null}
h -t 0.51 -s 3 -d 1 -p cbr -e 500 -c 3 -i 15 -a 3 -x {3.0 1.2 -1 ------- null}
r -t 0.51032 -s 0 -d 1 -p tcp -e 40 -c 0 -i 0 -a 0 -x {0.1 1.3 0 ------- null}
+ -t 0.51032 -s 1 -d 0 -p ack -e 40 -c 0 -i 16 -a 0 -x {1.3 0.1 0 ------- null}
- -t 0.51032 -s 1 -d 0 -p ack -e 40 -c 0 -i 16 -a 0 -x {1.3 0.1 0 ------- null}
h -t 0.51032 -s 1 -d 0 -p ack -e 40 -c 0 -i 16 -a 0 -x {1.3 0.1 -1 ------- null}
r -t 0.51032 -s 1 -d 2 -p tcp -e 40 -c 1 -i 2 -a 1 -x {1.1 2.3 0 ------- null}
+ -t 0.51032 -s 2 -d 1 -p ack -e 40 -c 1 -i 17 -a 1 -x {2.3 1.1 0 ------- null}
- -t 0.51032 -s 2 -d 1 -p ack -e 40 -c 1 -i 17 -a 1 -x {2.3 1.1 0 ------- null}
h -t 0.51032 -s 2 -d 1 -p ack -e 40 -c 1 -i 17 -a 1 -x {2.3 1.1 -1 ------- null}
r -t 0.51032 -s 2 -d 3 -p tcp -e 40 -c 2 -i 4 -a 2 -x {2.1 3.3 0 ------- null}
+ -t 0.51032 -s 3 -d 2 -p ack -e 40 -c 2 -i 18 -a 2 -x {3.3 2.1 0 ------- null}
- -t 0.51032 -s 3 -d 2 -p ack -e 40 -c 2 -i 18 -a 2 -x {3.3 2.1 0 ------- null}
h -t 0.51032 -s 3 -d 2 -p ack -e 40 -c 2 -i 18 -a 2 -x {3.3 2.1 -1 ------- null}
r -t 0.51032 -s 3 -d 0 -p tcp -e 40 -c 3 -i 6 -a 3 -x {3.1 0.3 0 ------- null}
+ -t 0.51032 -s 0 -d 3 -p ack -e 40 -c 3 -i 19 -a 3 -x {0.3 3.1 0 ------- null}
- -t 0.51032 -s 0 -d 3 -p ack -e 40 -c 3 -i 19 -a 3 -x {0.3 3.1 0 ------- null}
h -t 0.51032 -s 0 -d 3 -p ack -e 40 -c 3 -i 19 -a 3 -x {0.3 3.1 -1 ------- null}
r -t 0.514 -s 0 -d 2 -p cbr -e 500 -c 0 -i 1 -a 0 -x {0.0 2.2 0 ------- null}
r -t 0.514 -s 1 -d 3 -p cbr -e 500 -c 1 -i 3 -a 1 -x {1.0 3.2 0 ------- null}
r -t 0.514 -s 2 -d 0 -p cbr -e 500 -c 2 -i 5 -a 2 -x {2.0 0.2 0 ------- null}
r -t 0.514 -s 3 -d 1 -p cbr -e 500 -c 3 -i 7 -a 3 -x {3.0 1.2 0 ------- null}
+ -t 0.515 -s 0 -d 2 -p cbr -e 500 -c 0 -i 20 -a 0 -x {0.0 2.2 3 ------- null}
- -t 0.515 -s 0 -d 2 -p cbr -e 500 -c 0 -i 20 -a 0 -x {0.0 2.2 3 ------- null}
h -t 0.515 -s 0 -d 2 -p cbr -e 500 -c 0 -i 20 -a 0 -x {0.0 2.2 -1 ------- null}
+ -t 0.515 -s 1 -d 3 -p cbr -e 500 -c 1 -i 21 -a 1 -x {1.0 3.2 3 ------- null}
- -t 0.515 -s 1 -d 3 -p cbr -e 500 -c 1 -i 21 -a 1 -x {1.0 3.2 3 ------- null}
h -t 0.515 -s 1 -d 3 -p cbr -e 500 -c 1 -i 21 -a 1 -x {1.0 3.2 -1 ------- null}
+ -t 0.515 -s 2 -d 0 -p cbr -e 500 -c 2 -i 22 -a 2 -x {2.0 0.2 3 ------- null}
- -t 0.515 -s 2 -d 0 -p cbr -e 500 -c 2 -i 22 -a 2 -x {2.0 0.2 3 ------- null}
h -t 0.515 -s 2 -d 0 -p cbr -e 500 -c 2 -i 22 -a 2 -x {2.0 0.2 -1 ------- null}
+ -t 0.515 -s 3 -d 1 -p cbr -e 500 -c 3 -i 23 -a 3 -x {3.0 1.2 3 ------- null}
- -t 0.515 -s 3 -d 1 -p cbr -e 500 -c 3 -i 23 -a 3 -x {3.0 1.2 3 ------- null}
h -t 0.515 -s 3 -d 1 -p cbr -e 500 -c 3 -i 23 -a 3 -x {3.0 1.2 -1 ------- null}
r -t 0.519 -s 0 -d 2 -p cbr -e 500 -c 0 -i 8 -a 0 -x {0.0 2.2 1 ------- null}
r -t 0.519 -s 1 -d 3 -p cbr -e 500 -c 1 -i 9 -a 1 -x {1.0 3.2 1 ------- null}
r -t 0.519 -s 2 -d 0 -p cbr -e 500 -c 2 -i 10 -a 2 -x {2.0 0.2 1 ------- null}
r -t 0.519 -s 3 -d 1 -p cbr -e 500 -c 3 -i 11 -a 3 -x {3.0 1.2 1 ------- null}
+ -t 0.52 -s 0 -d 2 -p cbr -e 500 -c 0 -i 24 -a 0 -x {0.0 2.2 4 ------- null}
- -t 0.52 -s 0 -d 2 -p cbr -e 500 -c 0 -i 24 -a 0 -x {0.0 2.2 4 ------- null}
h -t 0.52 -s 0 -d 2 -p cbr -e 500 -c 0 -i 24 -a 0 -x {0.0 2.2 -1 ------- null}
+ -t 0.52 -s 1 -d 3 -p cbr -e 500 -c 1 -i 25 -a 1 -x {1.0 3.2 4 ------- null}
- -t 0.52 -s 1 -d 3 -p cbr -e 500 -c 1 -i 25 -a 1 -x {1.0 3.2 4 ------- null}
h -t 0.52 -s 1 -d 3 -p cbr -e 500 -c 1 -i 25 -a 1 -x {1.0 3.2 -1 ------- null}
+ -t 0.52 -s 2 -d 0 -p cbr -e 500 -c 2 -i 26 -a 2 -x {2.0 0.2 4 ------- null}
- -t 0.52 -s 2 -d 0 -p cbr -e 500 -c 2 -i 26 -a 2 -x {2.0 0.2 4 ------- null}
h -t 0.52 -s 2 -d 0 -p cbr -e 500 -c 2 -i 26 -a 2 -x {2.0 0.2 -1 ------- null}
+ -t 0.52 -s 3 -d 1 -p cbr -e 500 -c 3 -i 27 -a 3 -x {3.0 1.2 4 ------- null}
- -t 0.52 -s 3 -d 1 -p cbr -e 500 -c 3 -i 27 -a 3 -x {3.0 1.2 4 ------- null}
h -t 0.52 -s 3 -d 1 -p cbr -e 500 -c 3 -i 27 -a 3 -x {3.0 1.2 -1 ------- null}
r -t 0.52064 -s 1 -d 0 -p ack -e 40 -c 0 -i 16 -a 0 -x {1.3 0.1 0 ------- null}
+ -t 0.52064 -s 0 -d 1 -p tcp -e 1040 -c 0 -i 28 -a 0 -x {0.1 1.3 1 ------- null}
- -t 0.52064 -s 0 -d 1 -p tcp -e 1040 -c 0 -i 28 -a 0 -x {0.1 1.3 1 ------- null}
h -t 0.52064 -s 0 -d 1 -p tcp -e 1040 -c 0 -i 28 -a 0 -x {0.1 1.3 -1 ------- null}
+ -t 0.52064 -s 0 -d 1 -p tcp -e 1040 -c 0 -i 29 -a 0 -x {0.1 1.3 2 ------- null}
r -t 0.52064 -s 2 -d 1 -p ack -e 40 -c 1 -i 17 -a 1 -x {2.3 1.1 0 ------- null}
+ -t 0.52064 -s 1 -d 2 -p tcp -e 1040 -c 1 -i 30 -a 1 -x {1.1 2.3 1 ------- null}
- -t 0.52064 -s 1 -d 2 -p tcp -e 1040 -c 1 -i 30 -a 1 -x {1.1 2.3 1 ------- null}
h -t 0.52064 -s 1 -d 2 -p tcp -e 1040 -c 1 -i 30 -a 1 -x {1.1 2.3 -1 ------- null}
+ -t 0.52064 -s 1 -d 2 -p tcp -e 1040 -c 1 -i 31 -a 1 -x {1.1 2.3 2 ------- null}
r -t 0.52064 -s 3 -d 2 -p ack -e 40 -c 2 -i 18 -a 2 -x {3.3 2.1 0 ------- null}
+ -t 0.52064 -s 2 -d 3 -p tcp -e 1040 -c 2 -i 32 -a 2 -x {2.1 3.3 1 ------- null}
- -t 0.52064 -s 2 -d 3 -p tcp -e 1040 -c 2 -i 32 -a 2 -x {2.1 3.3 1 ------- null}
h -t 0.52064 -s 2 -d 3 -p tcp -e 1040 -c 2 -i 32 -a 2 -x {2.1 3.3 -1 ------- null}
+ -t 0.52064 -s 2 -d 3 -p tcp -e 1040 -c 2 -i 33 -a 2 -x {2.1 3.3 2 ------- null}
r -t 0.52064 -s 0 -d 3 -p ack -e 40 -c 3 -i 19 -a 3 -x {0.3 3.1 0 ------- null}
+ -t 0.52064 -s 3 -d 0 -p tcp -e 1040 -c 3 -i 34 -a 3 -x {3.1 0.3 1 ------- null}
- -t 0.52064 -s 3 -d 0 -p tcp -e 1040 -c 3 -i 34 -a 3 -x {3.1 0.3 1 ------- null}
h -t 0.52064 -s 3 -d 0 -p tcp -e 1040 -c 3 -i 34 -a 3 -x {3.1 0.3 -1 ------- null}
+ -t 0.52064 -s 3 -d 0 -p tcp -e 1040 -c 3 -i 35 -a 3 -x {3.1 0.3 2 ------- null}
r -t 0.524 -s 0 -d 2 -p cbr -e 500 -c 0 -i 12 -a 0 -x {0.0 2.2 2 ------- null}
r -t 0.524 -s 1 -d 3 -p cbr -e 500 -c 1 -i 13 -a 1 -x {1.0 3.2 2 ------- null}
r -t 0.524 -s 2 -d 0 -p cbr -e 500 -c 2 -i 14 -a 2 -x {2.0 0.2 2 ------- null}
r -t 0.524 -s 3 -d 1 -p cbr -e 500 -c 3 -i 15 -a 3 -x {3.0 1.2 2 ------- null}
+ -t 0.525 -s 0 -d 2 -p cbr -e 500 -c 0 -i 36 -a 0 -x {0.0 2.2 5 ------- null}
- -t 0.525 -s 0 -d 2 -p cbr -e 500 -c 0 -i 36 -a 0 -x {0.0 2.2 5 ------- null}
h -t 0.525 -s 0 -d 2 -p cbr -e 500 -c 0 -i 36 -a 0 -x {0.0 2.2 -1 ------- null}
+ -t 0.525 -s 1 -d 3 -p cbr -e 500 -c 1 -i 37 -a 1 -x {1.0 3.2 5 ------- null}
- -t 0.525 -s 1 -d 3 -p cbr -e 500 -c 1 -i 37 -a 1 -x {1.0 3.2 5 ------- null}
h -t 0.525 -s 1 -d 3 -p cbr -e 500 -c 1 -i 37 -a 1 -x {1.0 3.2 -1 ------- null}
+ -t 0.525 -s 2 -d 0 -p cbr -e 500 -c 2 -i 38 -a 2 -x {2.0 0.2 5 ------- null}
- -t 0.525 -s 2 -d 0 -p cbr -e 500 -c 2 -i 38 -a 2 -x {2.0 0.2 5 ------- null}
h -t 0.525 -s 2 -d 0 -p cbr -e 500 -c 2 -i 38 -a 2 -x {2.0 0.2 -1 ------- null}
+ -t 0.525 -s 3 -d 1 -p cbr -e 500 -c 3 -i 39 -a 3 -x {3.0 1.2 5 ------- null}
- -t 0.525 -s 3 -d 1 -p cbr -e 500 -c 3 -i 39 -a 3 -x {3.0 1.2 5 ------- null}
h -t 0.525 -s 3 -d 1 -p cbr -e 500 -c 3 -i 39 -a 3 -x {3.0 1.2 -1 ------- null}
- -t 0.52896 -s 0 -d 1 -p tcp -e 1040 -c 0 -i 29 -a 0 -x {0.1 1.3 2 ------- null}
h -t 0.52896 -s 0 -d 1 -p tcp -e 1040 -c 0 -i 29 -a 0 -x {0.1 1.3 -1 ------- null}
- -t 0.52896 -s 1 -d 2 -p tcp -e 1040 -c 1 -i 31 -a 1 -x {1.1 2.3 2 ------- null}
h -t 0.52896 -s 1 -d 2 -p tcp -e 1040 -c 1 -i 31 -a 1 -x {1.1 2.3 -1 ------- null}
- -t 0.52896 -s 2 -d 3 -p tcp -e 1040 -c 2 -i 33 -a 2 -x {2.1 3.3 2 ------- null}
h -t 0.52896 -s 2 -d 3 -p tcp -e 1040 -c 2 -i 33 -a 2 -x {2.1 3.3 -1 ------- null}
- -t 0.52896 -s 3 -d 0 -p tcp -e 1040 -c 3 -i 35 -a 3 -x {3.1 0.3 2 ------- null}
h -t 0.52896 -s 3 -d 0 -p tcp -e 1040 -c 3 -i 35 -a 3 -x {3.1 0.3 -1 ------- null}
r -t 0.529 -s 0 -d 2 -p cbr -e 500 -c 0 -i 20 -a 0 -x {0.0 2.2 3 ------- null}
r -t 0.529 -s 1 -d 3 -p cbr -e 500 -c 1 -i 21 -a 1 -x {1.0 3.2 3 ------- null}
r -t 0.529 -s 2 -d 0 -p cbr -e 500 -c 2 -i 22 -a 2 -x {2.0 0.2 3 ------- null}
r -t 0.529 -s 3 -d 1 -p cbr -e 500 -c 3 -i 23 -a 3 -x {3.0 1.2 3 ------- null}
+ -t 0.53 -s 0 -d 2 -p cbr -e 500 -c 0 -i 40 -a 0 -x {0.0 2.2 6 ------- null}
- -t 0.53 -s 0 -d 2 -p cbr -e 500 -c 0 -i 40 -a 0 -x {0.0 2.2 6 ------- null}
h -t 0.53 -s 0 -d 2 -p cbr -e 500 -c 0 -i 40 -a 0 -x {0.0 2.2 -1 ------- null}
+ -t 0.53 -s 1 -d 3 -p cbr -e 500 -c 1 -i 41 -a 1 -x {1.0 3.2 6 ------- null}
- -t 0.53 -s 1 -d 3 -p cbr -e 500 -c 1 -i 41 -a 1 -x {1.0 3.2 6 ------- null}
h -t 0.53 -s 1 -d 3 -p cbr -e 500 -c 1 -i 41 -a 1 -x {1.0 3.2 -1 ------- null}
+ -t 0.53 -s 2 -d 0 -p cbr -e 500 -c 2 -i 42 -a 2 -x {2.0 0.2 6 ------- null}
- -t 0.53 -s 2 -d 0 -p cbr -e 500 -c 2 -i 42 -a 2 -x {2.0 0.2 6 ------- null}
h -t 0.53 -s 2 -d 0 -p cbr -e 500 -c 2 -i 42 -a 2 -x {2.0 0.2 -1 ------- null}
+ -t 0.53 -s 3 -d 1 -p cbr -e 500 -c 3 -i 43 -a 3 -x {3.0 1.2 6 ------- null}
- -t 0.53 -s 3 -d 1 -p cbr -e 500 -c 3 -i 43 -a 3 -x {3.0 1.2 6 ------- null}
h -t 0.53 -s 3 -d 1 -p cbr -e 500 -c 3 -i 43 -a 3 -x {3.0 1.2 -1 ------- null}
r -t 0.534 -s 0 -d 2 -p cbr -e 500 -c 0 -i 24 -a 0 -x {0.0 2.2 4 ------- null}
r -t 0.534 -s 1 -d 3 -p cbr -e 500 -c 1 -i 25 -a 1 -x {1.0 3.2 4 ------- null}
r -t 0.534 -s 2 -d 0 -p cbr -e 500 -c 2 -i 26 -a 2 -x {2.0 0.2 4 ------- null}
r -t 0.534 -s 3 -d 1 -p cbr -e 500 -c 3 -i 27 -a 3 -x {3.0 1.2 4 ------- null}
+ -t 0.535 -s 0 -d 2 -p cbr -e 500 -c 0 -i 44 -a 0 -x {0.0 2.2 7 ------- null}
- -t 0.535 -s 0 -d 2 -p cbr -e 500 -c 0 -i 44 -a 0 -x {0.0 2.2 7 ------- null}
h -t 0.535 -s 0 -d 2 -p cbr -e 500 -c 0 -i 44 -a 0 -x {0.0 2.2 -1 ------- null}
+ -t 0.535 -s 1 -d 3 -p cbr -e 500 -c 1 -i 45 -a 1 -x {1.0 3.2 7 ------- null}
- -t 0.535 -s 1 -d 3 -p cbr -e 500 -c 1 -i 45 -a 1 -x {1.0 3.2 7 ------- null}
h -t 0.535 -s 1 -d 3 -p cbr -e 500 -c 1 -i 45 -a 1 -x {1.0 3.2 -1 ------- null}
+ -t 0.535 -s 2 -d 0 -p cbr -e 500 -c 2 -i 46 -a 2 -x {2.0 0.2 7 ------- null}
- -t 0.535 -s 2 -d 0 -p cbr -e 500 -c 2 -i 46 -a 2 -x {2.0 0.2 7 ------- null}
h -t 0.535 -s 2 -d 0 -p cbr -e 500 -c 2 -i 46 -a 2 -x {2.0 0.2 -1 ------- null}
+ -t 0.535 -s 3 -d 1 -p cbr -e 500 -c 3 -i 47 -a 3 -x {3.0 1.2 7 ------- null}
- -t 0.535 -s 3 -d 1 -p cbr -e 500 -c 3 -i 47 -a 3 -x {3.0 1.2 7 ------- null}
h -t 0.535 -s 3 -d 1 -p cbr -e 500 -c 3 -i 47 -a 3 -x {3.0 1.2 -1 ------- null}
r -t 0.53896 -s 0 -d 1 -p tcp -e 1040 -c 0 -i 28 -a 0 -x {0.1 1.3 1 ------- null}
+ -t 0.53896 -s 1 -d 0 -p ack -e 40 -c 0 -i 48 -a 0 -x {1.3 0.1 1 ------- null}
- -t 0.53896 -s 1 -d 0 -p ack -e 40 -c 0 -i 48 -a 0 -x {1.3 0.1 1 ------- null}
h -t 0.53896 -s 1 -d 0 -p ack -e 40 -c 0 -i 48 -a 0 -x {1.3 0.1 -1 ------- null}
r -t 0.53896 -s 1 -d 2 -p tcp -e 1040 -c 1 -i 30 -a 1 -x {1.1 2.3 1 ------- null}
+ -t 0.53896 -s 2 -d 1 -p ack -e 40 -c 1 -i 49 -a 1 -x {2.3 1.1 1 ------- null}
- -t 0.53896 -s 2 -d 1 -p ack -e 40 -c 1 -i 49 -a 1 -x {2.3 1.1 1 ------- null}
h -t 0.53896 -s 2 -d 1 -p ack -e 40 -c 1 -i 49 -a 1 -x {2.3 1.1 -1 ------- null}
r -t 0.53896 -s 2 -d 3 -p tcp -e 1040 -c 2 -i 32 -a 2 -x {2.1 3.3 1 ------- null}
+ -t 0.53896 -s 3 -d 2 -p ack -e 40 -c 2 -i 50 -a 2 -x {3.3 2.1 1 ------- null}
- -t 0.53896 -s 3 -d 2 -p ack -e 40 -c 2 -i 50 -a 2 -x {3.3 2.1 1 ------- null}
h -t 0.53896 -s 3 -d 2 -p ack -e 40 -c 2 -i 50 -a 2 -x {3.3 2.1 -1 ------- null}
r -t 0.53896 -s 3 -d 0 -p tcp -e 1040 -c 3 -i 34 -a 3 -x {3.1 0.3 1 ------- null}
+ -t 0.53896 -s 0 -d 3 -p ack -e 40 -c 3 -i 51 -a 3 -x {0.3 3.1 1 ------- null}
- -t 0.53896 -s 0 -d 3 -p ack -e 40 -c 3 -i 51 -a 3 -x {0.3 3.1 1 ------- null}
h -t 0.53896 -s 0 -d 3 -p ack -e 40 -c 3 -i 51 -a 3 -x {0.3 3.1 -1 ------- null}
r -t 0.539 -s 0 -d 2 -p cbr -e 500 -c 0 -i 36 -a 0 -x {0.0 2.2 5 ------- null}
r -t 0.539 -s 1 -d 3 -p cbr -e 500 -c 1 -i 37 -a 1 -x {1.0 3.2 5 ------- null}
r -t 0.539 -s 2 -d 0 -p cbr -e 500 -c 2 -i 38 -a 2 -x {2.0 0.2 5 ------- null}
r -t 0.539 -s 3 -d 1 -p cbr -e 500 -c 3 -i 39 -a 3 -x {3.0 1.2 5 ------- null}
+ -t 0.54 -s 0 -d 2 -p cbr -e 500 -c 0 -i 52 -a 0 -x {0.0 2.2 8 ------- null}
- -t 0.54 -s 0 -d 2 -p cbr -e 500 -c 0 -i 52 -a 0 -x {0.0 2.2 8 ------- null}
h -t 0.54 -s 0 -d 2 -p cbr -e 500 -c 0 -i 52 -a 0 -x {0.0 2.2 -1 ------- null}
+ -t 0.54 -s 1 -d 3 -p cbr -e 500 -c 1 -i 53 -a 1 -x {1.0 3.2 8 ------- null}
- -t 0.54 -s 1 -d 3 -p cbr -e 500 -c 1 -i 53 -a 1 -x {1.0 3.2 8 ------- null}
h -t 0.54 -s 1 -d 3 -p cbr -e 500 -c 1 -i 53 -a 1 -x {1.0 3.2 -1 ------- null}
+ -t 0.54 -s 2 -d 0 -p cbr -e 500 -c 2 -i 54 -a 2 -x {2.0 0.2 8 ------- null}
- -t 0.54 -s 2 -d 0 -p cbr -e 500 -c 2 -i 54 -a 2 -x {2.0 0.2 8 ------- null}
h -t 0.54 -s 2 -d 0 -p cbr -e 500 -c 2 -i 54 -a 2 -x {2.0 0.2 -1 ------- null}
+ -t 0.54 -s 3 -d 1 -p cbr -e 500 -c 3 -i 55 -a 3 -x {3.0 1.2 8 ------- null}
- -t 0.54 -s 3 -d 1 -p cbr -e 500 -c 3 -i 55 -a 3 -x {3.0 1.2 8 ------- null}
h -t 0.54 -s 3 -d 1 -p cbr -e 500 -c 3 -i 55 -a 3 -x {3.0 1.2 -1 ------- null}
r -t 0.544 -s 0 -d 2 -p cbr -e 500 -c 0 -i 40 -a 0 -x {0.0 2.2 6 ------- null}
r -t 0.544 -s 1 -d 3 -p cbr -e 500 -c 1 -i 41 -a 1 -x {1.0 3.2 6 ------- null}
r -t 0.544 -s 2 -d 0 -p cbr -e 500 -c 2 -i 42 -a 2 -x {2.0 0.2 6 ------- null}
r -t 0.544 -s 3 -d 1 -p cbr -e 500 -c 3 -i 43 -a 3 -x {3.0 1.2 6 ------- null}
+ -t 0.545 -s 0 -d 2 -p cbr -e 500 -c 0 -i 56 -a 0 -x {0.0 2.2 9 ------- null}
- -t 0.545 -s 0 -d 2 -p cbr -e 500 -c 0 -i 56 -a 0 -x {0.0 2.2 9 ------- null}
h -t 0.545 -s 0 -d 2 -p cbr -e 500 -c 0 -i 56 -a 0 -x {0.0 2.2 -1 ------- null}
+ -t 0.545 -s 1 -d 3 -p cbr -e 500 -c 1 -i 57 -a 1 -x {1.0 3.2 9 ------- null}
- -t 0.545 -s 1 -d 3 -p cbr -e 500 -c 1 -i 57 -a 1 -x {1.0 3.2 9 ------- null}
h -t 0.545 -s 1 -d 3 -p cbr -e 500 -c 1 -i 57 -a 1 -x {1.0 3.2 -1 ------- null}
+ -t 0.545 -s 2 -d 0 -p cbr -e 500 -c 2 -i 58 -a 2 -x {2.0 0.2 9 ------- null}
- -t 0.545 -s 2 -d 0 -p cbr -e 500 -c 2 -i 58 -a 2 -x {2.0 0.2 9 ------- null}
h -t 0.545 -s 2 -d 0 -p cbr -e 500 -c 2 -i 58 -a 2 -x {2.0 0.2 -1 ------- null}
+ -t 0.545 -s 3 -d 1 -p cbr -e 500 -c 3 -i 59 -a 3 -x {3.0 1.2 9 ------- null}
- -t 0.545 -s 3 -d 1 -p cbr -e 500 -c 3 -i 59 -a 3 -x {3.0 1.2 9 ------- null}
h -t 0.545 -s 3 -d 1 -p cbr -e 500 -c 3 -i 59 -a 3 -x {3.0 1.2 -1 ------- null}
r -t 0.54728 -s 0 -d 1 -p tcp -e 1040 -c 0 -i 29 -a 0 -x {0.1 1.3 2 ------- null}
+ -t 0.54728 -s 1 -d 0 -p ack -e 40 -c 0 -i 60 -a 0 -x {1.3 0.1 2 ------- null}
- -t 0.54728 -s 1 -d 0 -p ack -e 40 -c 0 -i 60 -a 0 -x {1.3 0.1 2 ------- null}
h -t 0.54728 -s 1 -d 0 -p ack -e 40 -c 0 -i 60 -a 0 -x {1.3 0.1 -1 ------- null}
r -t 0.54728 -s 1 -d 2 -p tcp -e 1040 -c 1 -i 31 -a 1 -x {1.1 2.3 2 ------- null}
+ -t 0.54728 -s 2 -d 1 -p ack -e 40 -c 1 -i 61 -a 1 -x {2.3 1.1 2 ------- null}
- -t 0.54728 -s 2 -d 1 -p ack -e 40 -c 1 -i 61 -a 1 -x {2.3 1.1 2 ------- null}
h -t 0.54728 -s 2 -d 1 -p ack -e 40 -c 1 -i 61 -a 1 -x {2.3 1.1 -1 ------- null}
r -t 0.54728 -s 2 -d 3 -p tcp -e 1040 -c 2 -i 33 -a 2 -x {2.1 3.3 2 ------- null}
+ -t 0.54728 -s 3 -d 2 -p ack -e 40 -c 2 -i 62 -a 2 -x {3.3 2.1 2 ------- null}
- -t 0.54728 -s 3 -d 2 -p ack -e 40 -c 2 -i 62 -a 2 -x {3.3 2.1 2 ------- null}
h -t 0.54728 -s 3 -d 2 -p ack -e 40 -c 2 -i 62 -a 2 -x {3.3 2.1 -1 ------- null}
r -t 0.54728 -s 3 -d 0 -p tcp -e 1040 -c 3 -i 35 -a 3 -x {3.1 0.3 2 ------- null}
+ -t 0.54728 -s 0 -d 3 -p ack -e 40 -c 3 -i 63 -a 3 -x {0.3 3.1 2 ------- null}
- -t 0.54728 -s 0 -d 3 -p ack -e 40 -c 3 -i 63 -a 3 -x {0.3 3.1 2 ------- null}
h -t 0.54728 -s 0 -d 3 -p ack -e 40 -c 3 -i 63 -a 3 -x {0.3 3.1 -1 ------- null}
r -t 0.549 -s 0 -d 2 -p cbr -e 500 -c 0 -i 44 -a 0 -x {0.0 2.2 7 ------- null}
r -t 0.549 -s 1 -d 3 -p cbr -e 500 -c 1 -i 45 -a 1 -x {1.0 3.2 7 ------- null}
r -t 0.549 -s 2 -d 0 -p cbr -e 500 -c 2 -i 46 -a 2 -x {2.0 0.2 7 ------- null}
r -t 0.549 -s 3 -d 1 -p cbr -e 500 -c 3 -i 47 -a 3 -x {3.0 1.2 7 ------- null}
r -t 0.54928 -s 1 -d 0 -p ack -e 40 -c 0 -i 48 -a 0 -x {1.3 0.1 1 ------- null}
+ -t 0.54928 -s 0 -d 1 -p tcp -e 1040 -c 0 -i 64 -a 0 -x {0.1 1.3 3 ------- null}
- -t 0.54928 -s 0 -d 1 -p tcp -e 1040 -c 0 -i 64 -a 0 -x {0.1 1.3 3 ------- null}
h -t 0.54928 -s 0 -d 1 -p tcp -e 1040 -c 0 -i 64 -a 0 -x {0.1 1.3 -1 ------- null}
+ -t 0.54928 -s 0 -d 1 -p tcp -e 1040 -c 0 -i 65 -a 0 -x {0.1 1.3 4 ------- null}
r -t 0.54928 -s 2 -d 1 -p ack -e 40 -c 1 -i 49 -a 1 -x {2.3 1.1 1 ------- null}
+ -t 0.54928 -s 1 -d 2 -p tcp -e 1040 -c 1 -i 66 -a 1 -x {1.1 2.3 3 ------- null}
- -t 0.54928 -s 1 -d 2 -p tcp -e 1040 -c 1 -i 66 -a 1 -x {1.1 2.3 3 ------- null}
h -t 0.54928 -s 1 -d 2 -p tcp -e 1040 -c 1 -i 66 -a 1 -x {1.1 2.3 -1 ------- null}
+ -t 0.54928 -s 1 -d 2 -p tcp -e 1040 -c 1 -i 67 -a 1 -x {1.1 2.3 4 ------- null}
r -t 0.54928 -s 3 -d 2 -p ack -e 40 -c 2 -i 50 -a 2 -x {3.3 2.1 1 ------- null}
+ -t 0.54928 -s 2 -d 3 -p tcp -e 1040 -c 2 -i 68 -a 2 -x {2.1 3.3 3 ------- null}
- -t 0.54928 -s 2 -d 3 -p tcp -e 1040 -c 2 -i 68 -a 2 -x {2.1 3.3 3 ------- null}
h -t 0.54928 -s 2 -d 3 -p tcp -e 1040 -c 2 -i 68 -a 2 -x {2.1 3.3 -1 ------- null}
+ -t 0.54928 -s 2 -d 3 -p tcp -e 1040 -c 2 -i 69 -a 2 -x {2.1 3.3 4 ------- null}
r -t 0.54928 -s 0 -d 3 -p ack -e 40 -c 3 -i 51 -a 3 -x {0.3 3.1 1 ------- null}
+ -t 0.54928 -s 3 -d 0 -p tcp -e 1040 -c 3 -i 70 -a 3 -x {3.1 0.3 3 ------- null}
- -t 0.54928 -s 3 -d 0 -p tcp -e 1040 -c 3 -i 70 -a 3 -x {3.1 0.3 3 ------- null}
h -t 0.54928 -s 3 -d 0 -p tcp -e 1040 -c 3 -i 70 -a 3 -x {3.1 0.3 -1 ------- null}
+ -t 0.54928 -s 3 -d 0 -p tcp -e 1040 -c 3 -i 71 -a 3 -x {3.1 0.3 4 ------- null}
+ -t 0.55 -s 0 -d 2 -p cbr -e 500 -c 0 -i 72 -a 0 -x {0.0 2.2 10 ------- null}
- -t 0.55 -s 0 -d 2 -p cbr -e 500 -c 0 -i 72 -a 0 -x {0.0 2.2 10 ------- null}
h -t 0.55 -s 0 -d 2 -p cbr -e 500 -c 0 -i 72 -a 0 -x {0.0 2.2 -1 ------- null}
+ -t 0.55 -s 1 -d 3 -p cbr -e 500 -c 1 -i 73 -a 1 -x {1.0 3.2 10 ------- null}
- -t 0.55 -s 1 -d 3 -p cbr -e 500 -c 1 -i 73 -a 1 -x {1.0 3.2 10 ------- null}
h -t 0.55 -s 1 -d 3 -p cbr -e 500 -c 1 -i 73 -a 1 -x {1.0 3.2 -1 ------- null}
+ -t 0.55 -s 2 -d 0 -p cbr -e 500 -c 2 -i 74 -a 2 -x {2.0 0.2 10 ------- null}
- -t 0.55 -s 2 -d 0 -p cbr -e 500 -c 2 -i 74 -a 2 -x {2.0 0.2 10 ------- null}
h -t 0.55 -s 2 -d 0 -p cbr -e 500 -c 2 -i 74 -a 2 -x {2.0 0.2 -1 ------- null}
+ -t 0.55 -s 3 -d 1 -p cbr -e 500 -c 3 -i 75 -a 3 -x {3.0 1.2 10 ------- null}
- -t 0.55 -s 3 -d 1 -p cbr -e 500 -c 3 -i 75 -a 3 -x {3.0 1.2 10 ------- null}
h -t 0.55 -s 3 -d 1 -p cbr -e 500 -c 3 -i 75 -a 3 -x {3.0 1.2 -1 ------- null}
r -t 0.554 -s 0 -d 2 -p cbr -e 500 -c 0 -i 52 -a 0 -x {0.0 2.2 8 ------- null}
r -t 0.554 -s 1 -d 3 -p cbr -e 500 -c 1 -i 53 -a 1 -x {1.0 3.2 8 ------- null}
r -t 0.554 -s 2 -d 0 -p cbr -e 500 -c 2 -i 54 -a 2 -x {2.0 0.2 8 ------- null}
r -t 0.554 -s 3 -d 1 -p cbr -e 500 -c 3 -i 55 -a 3 -x {3.0 1.2 8 ------- null}
+ -t 0.555 -s 0 -d 2 -p cbr -e 500 -c 0 -i 76 -a 0 -x {0.0 2.2 11 ------- null}
- -t 0.555 -s 0 -d 2 -p cbr -e 500 -c 0 -i 76 -a 0 -x {0.0 2.2 11 ------- null}
h -t 0.555 -s 0 -d 2 -p cbr -e 500 -c 0 -i 76 -a 0 -x {0.0 2.2 -1 ------- null}
+ -t 0.555 -s 1 -d 3 -p cbr -e 500 -c 1 -i 77 -a 1 -x {1.0 3.2 11 ------- null}
- -t 0.555 -s 1 -d 3 -p cbr -e 500 -c 1 -i 77 -a 1 -x {1.0 3.2 11 ------- null}
h -t 0.555 -s 1 -d 3 -p cbr -e 500 -c 1 -i 77 -a 1 -x {1.0 3.2 -1 ------- null}
+ -t 0.555 -s 2 -d 0 -p cbr -e 500 -c 2 -i 78 -a 2 -x {2.0 0.2 11 ------- null}
- -t 0.555 -s 2 -d 0 -p cbr -e 500 -c 2 -i 78 -a 2 -x {2.0 0.2 11 ------- null}
h -t 0.555 -s 2 -d 0 -p cbr -e 500 -c 2 -i 78 -a 2 -x {2.0 0.2 -1 ------- null}
+ -t 0.555 -s 3 -d 1 -p cbr -e 500 -c 3 -i 79 -a 3 -x {3.0 1.2 11 ------- null}
- -t 0.555 -s 3 -d 1 -p cbr -e 500 -c 3 -i 79 -a 3 -x {3.0 1.2 11 ------- null}
h -t 0.555 -s 3 -d 1 -p cbr -e 500 -c 3 -i 79 -a 3 -x {3.0 1.2 -1 ------- null}
r -t 0.5576 -s 1 -d 0 -p ack -e 40 -c 0 -i 60 -a 0 -x {1.3 0.1 2 ------- null}
+ -t 0.5576 -s 0 -d 1 -p tcp -e 1040 -c 0 -i 80 -a 0 -x {0.1 1.3 5 ------- null}
+ -t 0.5576 -s 0 -d 1 -p tcp -e 1040 -c 0 -i 81 -a 0 -x {0.1 1.3 6 ------- null}
r -t 0.5576 -s 2 -d 1 -p ack -e 40 -c 1 -i 61 -a 1 -x {2.3 1.1 2 ------- null}
+ -t 0.5576 -s 1 -d 2 -p tcp -e 1040 -c 1 -i 82 -a 1 -x {1.1 2.3 5 ------- null}
+ -t 0.5576 -s 1 -d 2 -p tcp -e 1040 -c 1 -i 83 -a 1 -x {1.1 2.3 6 ------- null}
r -t 0.5576 -s 3 -d 2 -p ack -e 40 -c 2 -i 62 -a 2 -x {3.3 2.1 2 ------- null}
+ -t 0.5576 -s 2 -d 3 -p tcp -e 1040 -c 2 -i 84 -a 2 -x {2.1 3.3 5 ------- null}
+ -t 0.5576 -s 2 -d 3 -p tcp -e 1040 -c 2 -i 85 -a 2 -x {2.1 3.3 6 ------- null}
r -t 0.5576 -s 0 -d 3 -p ack -e 40 -c 3 -i 63 -a 3 -x {0.3 3.1 2 ------- null}
+ -t 0.5576 -s 3 -d 0 -p tcp -e 1040 -c 3 -i 86 -a 3 -x {3.1 0.3 5 ------- null}
+ -t 0.5576 -s 3 -d 0 -p tcp -e 1040 -c 3 -i 87 -a 3 -x {3.1 0.3 6 ------- null}
- -t 0.5576 -s 0 -d 1 -p tcp -e 1040 -c 0 -i 65 -a 0 -x {0.1 1.3 4 ------- null}
h -t 0.5576 -s 0 -d 1 -p tcp -e 1040 -c 0 -i 65 -a 0 -x {0.1 1.3 -1 ------- null}
- -t 0.5576 -s 1 -d 2 -p tcp -e 1040 -c 1 -i 67 -a 1 -x {1.1 2.3 4 ------- null}
h -t 0.5576 -s 1 -d 2 -p tcp -e 1040 -c 1 -i 67 -a 1 -x {1.1 2.3 -1 ------- null}
- -t 0.5576 -s 2 -d 3 -p tcp -e 1040 -c 2 -i 69 -a 2 -x {2.1 3.3 4 ------- null}
h -t 0.5576 -s 2 -d 3 -p tcp -e 1040 -c 2 -i 69 -a 2 -x {2.1 3.3 -1 ------- null}
- -t 0.5576 -s 3 -d 0 -p tcp -e 1040 -c 3 -i 71 -a 3 -x {3.1 0.3 4 ------- null}
h -t 0.5576 -s 3 -d 0 -p tcp -e 1040 -c 3 -i 71 -a 3 -x {3.1 0.3 -1 ------- null}
r -t 0.559 -s 0 -d 2 -p cbr -e 500 -c 0 -i 56 -a 0 -x {0.0 2.2 9 ------- null}
r -t 0.559 -s 1 -d 3 -p cbr -e 500 -c 1 -i 57 -a 1 -x {1.0 3.2 9 ------- null}
r -t 0.559 -s 2 -d 0 -p cbr -e 500 -c 2 -i 58 -a 2 -x {2.0 0.2 9 ------- null}
r -t 0.559 -s 3 -d 1 -p cbr -e 500 -c 3 -i 59 -a 3 -x {3.0 1.2 9 ------- null}
+ -t 0.56 -s 0 -d 2 -p cbr -e 500 -c 0 -i 88 -a 0 -x {0.0 2.2 12 ------- null}
- -t 0.56 -s 0 -d 2 -p cbr -e 500 -c 0 -i 88 -a 0 -x {0.0 2.2 12 ------- null}
h -t 0.56 -s 0 -d 2 -p cbr -e 500 -c 0 -i 88 -a 0 -x {0.0 2.2 -1 ------- null}
+ -t 0.56 -s 1 -d 3 -p cbr -e 500 -c 1 -i 89 -a 1 -x {1.0 3.2 12 ------- null}
- -t 0.56 -s 1 -d 3 -p cbr -e 500 -c 1 -i 89 -a 1 -x {1.0 3.2 12 ------- null}
h -t 0.56 -s 1 -d 3 -p cbr -e 500 -c 1 -i 89 -a 1 -x {1.0 3.2 -1 ------- null}
+ -t 0.56 -s 2 -d 0 -p cbr -e 500 -c 2 -i 90 -a 2 -x {2.0 0.2 12 ------- null}
- -t 0.56 -s 2 -d 0 -p cbr -e 500 -c 2 -i 90 -a 2 -x {2.0 0.2 12 ------- null}
h -t 0.56 -s 2 -d 0 -p cbr -e 500 -c 2 -i 90 -a 2 -x {2.0 0.2 -1 ------- null}
+ -t 0.56 -s 3 -d 1 -p cbr -e 500 -c 3 -i 91 -a 3 -x {3.0 1.2 12 ------- null}
- -t 0.56 -s 3 -d 1 -p cbr -e 500 -c 3 -i 91 -a 3 -x {3.0 1.2 12 ------- null}
h -t 0.56 -s 3 -d 1 -p cbr -e 500 -c 3 -i 91 -a 3 -x {3.0 1.2 -1 ------- null}
r -t 0.564 -s 0 -d 2 -p cbr -e 500 -c 0 -i 72 -a 0 -x {0.0 2.2 10 ------- null}
r -t 0.564 -s 1 -d 3 -p cbr -e 500 -c 1 -i 73 -a 1 -x {1.0 3.2 10 ------- null}
r -t 0.564 -s 2 -d 0 -p cbr -e 500 -c 2 -i 74 -a 2 -x {2.0 0.2 10 ------- null}
r -t 0.564 -s 3 -d 1 -p cbr -e 500 -c 3 -i 75 -a 3 -x {3.0 1.2 10 ------- null}
+ -t 0.565 -s 0 -d 2 -p cbr -e 500 -c 0 -i 92 -a 0 -x {0.0 2.2 13 ------- null}
- -t 0.565 -s 0 -d 2 -p cbr -e 500 -c 0 -i 92 -a 0 -x {0.0 2.2 13 ------- null}
h -t 0.565 -s 0 -d 2 -p cbr -e 500 -c 0 -i 92 -a 0 -x {0.0 2.2 -1 ------- null}
+ -t 0.565 -s 1 -d 3 -p cbr -e 500 -c 1 -i 93 -a 1 -x {1.0 3.2 13 ------- null}
- -t 0.565 -s 1 -d 3 -p cbr -e 500 -c 1 -i 93 -a 1 -x {1.0 3.2 13 ------- null}
h -t 0.565 -s 1 -d 3 -p cbr -e 500 -c 1 -i 93 -a 1 -x {1.0 3.2 -1 ------- null}
+ -t 0.565 -s 2 -d 0 -p cbr -e 500 -c 2 -i 94 -a 2 -x {2.0 0.2 13 ------- null}
- -t 0.565 -s 2 -d 0 -p cbr -e 500 -c 2 -i 94 -a 2 -x {2.0 0.2 13 ------- null}
h -t 0.565 -s 2 -d 0 -p cbr -e 500 -c 2 -i 94 -a 2 -x {2.0 0.2 -1 ------- null}
+ -t 0.565 -s 3 -d 1 -p cbr -e 500 -c 3 -i 95 -a 3 -x {3.0 1.2 13 ------- null}
- -t 0.565 -s 3 -d 1 -p cbr -e 500 -c 3 -i 95 -a 3 -x {3.0 1.2 13 ------- null}
h -t 0.565 -s 3 -d 1 -p cbr -e 500 -c 3 -i 95 -a 3 -x {3.0 1.2 -1 ------- null}
- -t 0.56592 -s 0 -d 1 -p tcp -e 1040 -c 0 -i 80 -a 0 -x {0.1 1.3 5 ------- null}
h -t 0.56592 -s 0 -d 1 -p tcp -e 1040 -c 0 -i 80 -a 0 -x {0.1 1.3 -1 ------- null}
- -t 0.56592 -s 1 -d 2 -p tcp -e 1040 -c 1 -i 82 -a 1 -x {1.1 2.3 5 ------- null}
h -t 0.56592 -s 1 -d 2 -p tcp -e 1040 -c 1 -i 82 -a 1 -x {1.1 2.3 -1 ------- null}
- -t 0.56592 -s 2 -d 3 -p tcp -e 1040 -c 2 -i 84 -a 2 -x {2.1 3.3 5 ------- null}
h -t 0.56592 -s 2 -d 3 -p tcp -e 1040 -c 2 -i 84 -a 2 -x {2.1 3.3 -1 ------- null}
- -t 0.56592 -s 3 -d 0 -p tcp -e 1040 -c 3 -i 86 -a 3 -x {3.1 0.3 5 ------- null}
h -t 0.56592 -s 3 -d 0 -p tcp -e 1040 -c 3 -i 86 -a 3 -x {3.1 0.3 -1 ------- null}
r -t 0.5676 -s 0 -d 1 -p tcp -e 1040 -c 0 -i 64 -a 0 -x {0.1 1.3 3 ------- null}
+ -t 0.5676 -s 1 -d 0 -p ack -e 40 -c 0 -i 96 -a 0 -x {1.3 0.1 3 ------- null}
- -t 0.5676 -s 1 -d 0 -p ack -e 40 -c 0 -i 96 -a 0 -x {1.3 0.1 3 ------- null}
h -t 0.5676 -s 1 -d 0 -p ack -e 40 -c 0 -i 96 -a 0 -x {1.3 0.1 -1 ------- null}
r -t 0.5676 -s 1 -d 2 -p tcp -e 1040 -c 1 -i 66 -a 1 -x {1.1 2.3 3 ------- null}
+ -t 0.5676 -s 2 -d 1 -p ack -e 40 -c 1 -i 97 -a 1 -x {2.3 1.1 3 ------- null}
- -t 0.5676 -s 2 -d 1 -p ack -e 40 -c 1 -i 97 -a 1 -x {2.3 1.1 3 ------- null}
h -t 0.5676 -s 2 -d 1 -p ack -e 40 -c 1 -i 97 -a 1 -x {2.3 1.1 -1 ------- null}
r -t 0.5676 -s 2 -d 3 -p tcp -e 1040 -c 2 -i 68 -a 2 -x {2.1 3.3 3 ------- null}
+ -t 0.5676 -s 3 -d 2 -p ack -e 40 -c 2 -i 98 -a 2 -x {3.3 2.1 3 ------- null}
- -t 0.5676 -s 3 -d 2 -p ack -e 40 -c 2 -i 98 -a 2 -x {3.3 2.1 3 ------- null}
h -t 0.5676 -s 3 -d 2 -p ack -e 40 -c 2 -i 98 -a 2 -x {3.3 2.1 -1 ------- null}
r -t 0.5676 -s 3 -d 0 -p tcp -e 1040 -c 3 -i 70 -a 3 -x {3.1 0.3 3 ------- null}
+ -t 0.5676 -s 0 -d 3 -p ack -e 40 -c 3 -i 99 -a 3 -x {0.3 3.1 3 ------- null}
- -t 0.5676 -s 0 -d 3 -p ack -e 40 -c 3 -i 99 -a 3 -x {0.3 3.1 3 ------- null}
h -t 0.5676 -s 0 -d 3 -p ack -e 40 -c 3 -i 99 -a 3 -x {0.3 3.1 -1 ------- null}
r -t 0.569 -s 0 -d 2 -p cbr -e 500 -c 0 -i 76 -a 0 -x {0.0 2.2 11 ------- null}
r -t 0.569 -s 1 -d 3 -p cbr -e 500 -c 1 -i 77 -a 1 -x {1.0 3.2 11 ------- null}