+ 0.5 0 1 tcp 40 ------- 0 0.1 1.3 0 0
- 0.5 0 1 tcp 40 ------- 0 0.1 1.3 0 0
+ 0.5 0 2 cbr 500 ------- 0 0.0 2.2 0 1
- 0.5 0 2 cbr 500 ------- 0 0.0 2.2 0 1
+ 0.5 1 2 tcp 40 ------- 1 1.1 2.3 0 2
- 0.5 1 2 tcp 40 ------- 1 1.1 2.3 0 2
+ 0.5 1 3 cbr 500 ------- 1 1.0 3.2 0 3
- 0.5 1 3 cbr 500 ------- 1 1.0 3.2 0 3
+ 0.5 2 3 tcp 40 ------- 2 2.1 3.3 0 4
- 0.5 2 3 tcp 40 ------- 2 2.1 3.3 0 4
+ 0.5 2 0 cbr 500 ------- 2 2.0 0.2 0 5
- 0.5 2 0 cbr 500 ------- 2 2.0 0.2 0 5
+ 0.5 3 0 tcp 40 ------- 3 3.1 0.3 0 6
- 0.5 3 0 tcp 40 ------- 3 3.1 0.3 0 6
+ 0.5 3 1 cbr 500 ------- 3 3.0 1.2 0 7
- 0.5 3 1 cbr 500 ------- 3 3.0 1.2 0 7
+ 0.505 0 2 cbr 500 ------- 0 0.0 2.2 1 8
- 0.505 0 2 cbr 500 ------- 0 0.0 2.2 1 8
+ 0.505 1 3 cbr 500 ------- 1 1.0 3.2 1 9
- 0.505 1 3 cbr 500 ------- 1 1.0 3.2 1 9
+ 0.505 2 0 cbr 500 ------- 2 2.0 0.2 1 10
- 0.505 2 0 cbr 500 ------- 2 2.0 0.2 1 10
+ 0.505 3 1 cbr 500 ------- 3 3.0 1.2 1 11
- 0.505 3 1 cbr 500 ------- 3 3.0 1.2 1 11
+ 0.51 0 2 cbr 500 ------- 0 0.0 2.2 2 12
- 0.51 0 2 cbr 500 ------- 0 0.0 2.2 2 12
+ 0.51 1 3 cbr 500 ------- 1 1.0 3.2 2 13
- 0.51 1 3 cbr 500 ------- 1 1.0 3.2 2 13
+ 0.51 2 0 cbr 500 ------- 2 2.0 0.2 2 14
- 0.51 2 0 cbr 500 ------- 2 2.0 0.2 2 14
+ 0.51 3 1 cbr 500 ------- 3 3.0 1.2 2 15
- 0.51 3 1 cbr 500 ------- 3 3.0 1.2 2 15
r 0.51032 0 1 tcp 40 ------- 0 0.1 1.3 0 0
+ 0.51032 1 0 ack 40 ------- 0 1.3 0.1 0 16
- 0.51032 1 0 ack 40 ------- 0 1.3 0.1 0 16
r 0.51032 1 2 tcp 40 ------- 1 1.1 2.3 0 2
+ 0.51032 2 1 ack 40 ------- 1 2.3 1.1 0 17
- 0.51032 2 1 ack 40 ------- 1 2.3 1.1 0 17
r 0.51032 2 3 tcp 40 ------- 2 2.1 3.3 0 4
+ 0.51032 3 2 ack 40 ------- 2 3.3 2.1 0 18
- 0.51032 3 2 ack 40 ------- 2 3.3 2.1 0 18
r 0.51032 3 0 tcp 40 ------- 3 3.1 0.3 0 6
+ 0.51032 0 3 ack 40 ------- 3 0.3 3.1 0 19
- 0.51032 0 3 ack 40 ------- 3 0.3 3.1 0 19
r 0.514 0 2 cbr 500 ------- 0 0.0 2.2 0 1
r 0.514 1 3 cbr 500 ------- 1 1.0 3.2 0 3
r 0.514 2 0 cbr 500 ------- 2 2.0 0.2 0 5
r 0.514 3 1 cbr 500 ------- 3 3.0 1.2 0 7
+ 0.515 0 2 cbr 500 ------- 0 0.0 2.2 3 20
- 0.515 0 2 cbr 500 ------- 0 0.0 2.2 3 20
+ 0.515 1 3 cbr 500 ------- 1 1.0 3.2 3 21
- 0.515 1 3 cbr 500 ------- 1 1.0 3.2 3 21
+ 0.515 2 0 cbr 500 ------- 2 2.0 0.2 3 22
- 0.515 2 0 cbr 500 ------- 2 2.0 0.2 3 22
+ 0.515 3 1 cbr 500 ------- 3 3.0 1.2 3 23
- 0.515 3 1 cbr 500 ------- 3 3.0 1.2 3 23
r 0.519 0 2 cbr 500 ------- 0 0.0 2.2 1 8
r 0.519 1 3 cbr 500 ------- 1 1.0 3.2 1 9
r 0.519 2 0 cbr 500 ------- 2 2.0 0.2 1 10
r 0.519 3 1 cbr 500 ------- 3 3.0 1.2 1 11
+ 0.52 0 2 cbr 500 ------- 0 0.0 2.2 4 24
- 0.52 0 2 cbr 500 ------- 0 0.0 2.2 4 24
+ 0.52 1 3 cbr 500 ------- 1 1.0 3.2 4 25
- 0.52 1 3 cbr 500 ------- 1 1.0 3.2 4 25
+ 0.52 2 0 cbr 500 ------- 2 2.0 0.2 4 26
- 0.52 2 0 cbr 500 ------- 2 2.0 0.2 4 26
+ 0.52 3 1 cbr 500 ------- 3 3.0 1.2 4 27
- 0.52 3 1 cbr 500 ------- 3 3.0 1.2 4 27
r 0.52064 1 0 ack 40 ------- 0 1.3 0.1 0 16
+ 0.52064 0 1 tcp 1040 ------- 0 0.1 1.3 1 28
- 0.52064 0 1 tcp 1040 ------- 0 0.1 1.3 1 28
+ 0.52064 0 1 tcp 1040 ------- 0 0.1 1.3 2 29
r 0.52064 2 1 ack 40 ------- 1 2.3 1.1 0 17
+ 0.52064 1 2 tcp 1040 ------- 1 1.1 2.3 1 30
- 0.52064 1 2 tcp 1040 ------- 1 1.1 2.3 1 30
+ 0.52064 1 2 tcp 1040 ------- 1 1.1 2.3 2 31
r 0.52064 3 2 ack 40 ------- 2 3.3 2.1 0 18
+ 0.52064 2 3 tcp 1040 ------- 2 2.1 3.3 1 32
- 0.52064 2 3 tcp 1040 ------- 2 2.1 3.3 1 32
+ 0.52064 2 3 tcp 1040 ------- 2 2.1 3.3 2 33
r 0.52064 0 3 ack 40 ------- 3 0.3 3.1 0 19
+ 0.52064 3 0 tcp 1040 ------- 3 3.1 0.3 1 34
- 0.52064 3 0 tcp 1040 ------- 3 3.1 0.3 1 34
+ 0.52064 3 0 tcp 1040 ------- 3 3.1 0.3 2 35
r 0.524 0 2 cbr 500 ------- 0 0.0 2.2 2 12
r 0.524 1 3 cbr 500 ------- 1 1.0 3.2 2 13
r 0.524 2 0 cbr 500 ------- 2 2.0 0.2 2 14
r 0.524 3 1 cbr 500 ------- 3 3.0 1.2 2 15
+ 0.525 0 2 cbr 500 ------- 0 0.0 2.2 5 36
- 0.525 0 2 cbr 500 ------- 0 0.0 2.2 5 36
+ 0.525 1 3 cbr 500 ------- 1 1.0 3.2 5 37
- 0.525 1 3 cbr 500 ------- 1 1.0 3.2 5 37
+ 0.525 2 0 cbr 500 ------- 2 2.0 0.2 5 38
- 0.525 2 0 cbr 500 ------- 2 2.0 0.2 5 38
+ 0.525 3 1 cbr 500 ------- 3 3.0 1.2 5 39
- 0.525 3 1 cbr 500 ------- 3 3.0 1.2 5 39
- 0.52896 0 1 tcp 1040 ------- 0 0.1 1.3 2 29
- 0.52896 1 2 tcp 1040 ------- 1 1.1 2.3 2 31
- 0.52896 2 3 tcp 1040 ------- 2 2.1 3.3 2 33
- 0.52896 3 0 tcp 1040 ------- 3 3.1 0.3 2 35
r 0.529 0 2 cbr 500 ------- 0 0.0 2.2 3 20
r 0.529 1 3 cbr 500 ------- 1 1.0 3.2 3 21
r 0.529 2 0 cbr 500 ------- 2 2.0 0.2 3 22
r 0.529 3 1 cbr 500 ------- 3 3.0 1.2 3 23
+ 0.53 0 2 cbr 500 ------- 0 0.0 2.2 6 40
- 0.53 0 2 cbr 500 ------- 0 0.0 2.2 6 40
+ 0.53 1 3 cbr 500 ------- 1 1.0 3.2 6 41
- 0.53 1 3 cbr 500 ------- 1 1.0 3.2 6 41
+ 0.53 2 0 cbr 500 ------- 2 2.0 0.2 6 42
- 0.53 2 0 cbr 500 ------- 2 2.0 0.2 6 42
+ 0.53 3 1 cbr 500 ------- 3 3.0 1.2 6 43
- 0.53 3 1 cbr 500 ------- 3 3.0 1.2 6 43
r 0.534 0 2 cbr 500 ------- 0 0.0 2.2 4 24
r 0.534 1 3 cbr 500 ------- 1 1.0 3.2 4 25
r 0.534 2 0 cbr 500 ------- 2 2.0 0.2 4 26
r 0.534 3 1 cbr 500 ------- 3 3.0 1.2 4 27
+ 0.535 0 2 cbr 500 ------- 0 0.0 2.2 7 44
- 0.535 0 2 cbr 500 ------- 0 0.0 2.2 7 44
+ 0.535 1 3 cbr 500 ------- 1 1.0 3.2 7 45
- 0.535 1 3 cbr 500 ------- 1 1.0 3.2 7 45
+ 0.535 2 0 cbr 500 ------- 2 2.0 0.2 7 46
- 0.535 2 0 cbr 500 ------- 2 2.0 0.2 7 46
+ 0.535 3 1 cbr 500 ------- 3 3.0 1.2 7 47
- 0.535 3 1 cbr 500 ------- 3 3.0 1.2 7 47
r 0.53896 0 1 tcp 1040 ------- 0 0.1 1.3 1 28
+ 0.53896 1 0 ack 40 ------- 0 1.3 0.1 1 48
- 0.53896 1 0 ack 40 ------- 0 1.3 0.1 1 48
r 0.53896 1 2 tcp 1040 ------- 1 1.1 2.3 1 30
+ 0.53896 2 1 ack 40 ------- 1 2.3 1.1 1 49
- 0.53896 2 1 ack 40 ------- 1 2.3 1.1 1 49
r 0.53896 2 3 tcp 1040 ------- 2 2.1 3.3 1 32
+ 0.53896 3 2 ack 40 ------- 2 3.3 2.1 1 50
- 0.53896 3 2 ack 40 ------- 2 3.3 2.1 1 50
r 0.53896 3 0 tcp 1040 ------- 3 3.1 0.3 1 34
+ 0.53896 0 3 ack 40 ------- 3 0.3 3.1 1 51
- 0.53896 0 3 ack 40 ------- 3 0.3 3.1 1 51
r 0.539 0 2 cbr 500 ------- 0 0.0 2.2 5 36
r 0.539 1 3 cbr 500 ------- 1 1.0 3.2 5 37
r 0.539 2 0 cbr 500 ------- 2 2.0 0.2 5 38
r 0.539 3 1 cbr 500 ------- 3 3.0 1.2 5 39
+ 0.54 0 2 cbr 500 ------- 0 0.0 2.2 8 52
- 0.54 0 2 cbr 500 ------- 0 0.0 2.2 8 52
+ 0.54 1 3 cbr 500 ------- 1 1.0 3.2 8 53
- 0.54 1 3 cbr 500 ------- 1 1.0 3.2 8 53
+ 0.54 2 0 cbr 500 ------- 2 2.0 0.2 8 54
- 0.54 2 0 cbr 500 ------- 2 2.0 0.2 8 54
+ 0.54 3 1 cbr 500 ------- 3 3.0 1.2 8 55
- 0.54 3 1 cbr 500 ------- 3 3.0 1.2 8 55
r 0.544 0 2 cbr 500 ------- 0 0.0 2.2 6 40
r 0.544 1 3 cbr 500 ------- 1 1.0 3.2 6 41
r 0.544 2 0 cbr 500 ------- 2 2.0 0.2 6 42
r 0.544 3 1 cbr 500 ------- 3 3.0 1.2 6 43
+ 0.545 0 2 cbr 500 ------- 0 0.0 2.2 9 56
- 0.545 0 2 cbr 500 ------- 0 0.0 2.2 9 56
+ 0.545 1 3 cbr 500 ------- 1 1.0 3.2 9 57
- 0.545 1 3 cbr 500 ------- 1 1.0 3.2 9 57
+ 0.545 2 0 cbr 500 ------- 2 2.0 0.2 9 58
- 0.545 2 0 cbr 500 ------- 2 2.0 0.2 9 58
+ 0.545 3 1 cbr 500 ------- 3 3.0 1.2 9 59
- 0.545 3 1 cbr 500 ------- 3 3.0 1.2 9 59
r 0.54728 0 1 tcp 1040 ------- 0 0.1 1.3 2 29
+ 0.54728 1 0 ack 40 ------- 0 1.3 0.1 2 60
- 0.54728 1 0 ack 40 ------- 0 1.3 0.1 2 60
r 0.54728 1 2 tcp 1040 ------- 1 1.1 2.3 2 31
+ 0.54728 2 1 ack 40 ------- 1 2.3 1.1 2 61
- 0.54728 2 1 ack 40 ------- 1 2.3 1.1 2 61
r 0.54728 2 3 tcp 1040 ------- 2 2.1 3.3 2 33
+ 0.54728 3 2 ack 40 ------- 2 3.3 2.1 2 62
- 0.54728 3 2 ack 40 ------- 2 3.3 2.1 2 62
r 0.54728 3 0 tcp 1040 ------- 3 3.1 0.3 2 35
+ 0.54728 0 3 ack 40 ------- 3 0.3 3.1 2 63
- 0.54728 0 3 ack 40 ------- 3 0.3 3.1 2 63
r 0.549 0 2 cbr 500 ------- 0 0.0 2.2 7 44
r 0.549 1 3 cbr 500 ------- 1 1.0 3.2 7 45
r 0.549 2 0 cbr 500 ------- 2 2.0 0.2 7 46
r 0.549 3 1 cbr 500 ------- 3 3.0 1.2 7 47
r 0.54928 1 0 ack 40 ------- 0 1.3 0.1 1 48
+ 0.54928 0 1 tcp 1040 ------- 0 0.1 1.3 3 64
- 0.54928 0 1 tcp 1040 ------- 0 0.1 1.3 3 64
+ 0.54928 0 1 tcp 1040 ------- 0 0.1 1.3 4 65
r 0.54928 2 1 ack 40 ------- 1 2.3 1.1 1 49
+ 0.54928 1 2 tcp 1040 ------- 1 1.1 2.3 3 66
- 0.54928 1 2 tcp 1040 ------- 1 1.1 2.3 3 66
+ 0.54928 1 2 tcp 1040 ------- 1 1.1 2.3 4 67
r 0.54928 3 2 ack 40 ------- 2 3.3 2.1 1 50
+ 0.54928 2 3 tcp 1040 ------- 2 2.1 3.3 3 68
- 0.54928 2 3 tcp 1040 ------- 2 2.1 3.3 3 68
+ 0.54928 2 3 tcp 1040 ------- 2 2.1 3.3 4 69
r 0.54928 0 3 ack 40 ------- 3 0.3 3.1 1 51
+ 0.54928 3 0 tcp 1040 ------- 3 3.1 0.3 3 70
- 0.54928 3 0 tcp 1040 ------- 3 3.1 0.3 3 70
+ 0.54928 3 0 tcp 1040 ------- 3 3.1 0.3 4 71
+ 0.55 0 2 cbr 500 ------- 0 0.0 2.2 10 72
- 0.55 0 2 cbr 500 ------- 0 0.0 2.2 10 72
+ 0.55 1 3 cbr 500 ------- 1 1.0 3.2 10 73
- 0.55 1 3 cbr 500 ------- 1 1.0 3.2 10 73
+ 0.55 2 0 cbr 500 ------- 2 2.0 0.2 10 74
- 0.55 2 0 cbr 500 ------- 2 2.0 0.2 10 74
+ 0.55 3 1 cbr 500 ------- 3 3.0 1.2 10 75
- 0.55 3 1 cbr 500 ------- 3 3.0 1.2 10 75
r 0.554 0 2 cbr 500 ------- 0 0.0 2.2 8 52
r 0.554 1 3 cbr 500 ------- 1 1.0 3.2 8 53
r 0.554 2 0 cbr 500 ------- 2 2.0 0.2 8 54
r 0.554 3 1 cbr 500 ------- 3 3.0 1.2 8 55
+ 0.555 0 2 cbr 500 ------- 0 0.0 2.2 11 76
- 0.555 0 2 cbr 500 ------- 0 0.0 2.2 11 76
+ 0.555 1 3 cbr 500 ------- 1 1.0 3.2 11 77
- 0.555 1 3 cbr 500 ------- 1 1.0 3.2 11 77
+ 0.555 2 0 cbr 500 ------- 2 2.0 0.2 11 78
- 0.555 2 0 cbr 500 ------- 2 2.0 0.2 11 78
+ 0.555 3 1 cbr 500 ------- 3 3.0 1.2 11 79
- 0.555 3 1 cbr 500 ------- 3 3.0 1.2 11 79
r 0.5576 1 0 ack 40 ------- 0 1.3 0.1 2 60
+ 0.5576 0 1 tcp 1040 ------- 0 0.1 1.3 5 80
+ 0.5576 0 1 tcp 1040 ------- 0 0.1 1.3 6 81
r 0.5576 2 1 ack 40 ------- 1 2.3 1.1 2 61
+ 0.5576 1 2 tcp 1040 ------- 1 1.1 2.3 5 82
+ 0.5576 1 2 tcp 1040 ------- 1 1.1 2.3 6 83
r 0.5576 3 2 ack 40 ------- 2 3.3 2.1 2 62
+ 0.5576 2 3 tcp 1040 ------- 2 2.1 3.3 5 84
+ 0.5576 2 3 tcp 1040 ------- 2 2.1 3.3 6 85
r 0.5576 0 3 ack 40 ------- 3 0.3 3.1 2 63
+ 0.5576 3 0 tcp 1040 ------- 3 3.1 0.3 5 86
+ 0.5576 3 0 tcp 1040 ------- 3 3.1 0.3 6 87
- 0.5576 0 1 tcp 1040 ------- 0 0.1 1.3 4 65
- 0.5576 1 2 tcp 1040 ------- 1 1.1 2.3 4 67
- 0.5576 2 3 tcp 1040 ------- 2 2.1 3.3 4 69
- 0.5576 3 0 tcp 1040 ------- 3 3.1 0.3 4 71
r 0.559 0 2 cbr 500 ------- 0 0.0 2.2 9 56
r 0.559 1 3 cbr 500 ------- 1 1.0 3.2 9 57
r 0.559 2 0 cbr 500 ------- 2 2.0 0.2 9 58
r 0.559 3 1 cbr 500 ------- 3 3.0 1.2 9 59
+ 0.56 0 2 cbr 500 ------- 0 0.0 2.2 12 88
- 0.56 0 2 cbr 500 ------- 0 0.0 2.2 12 88
+ 0.56 1 3 cbr 500 ------- 1 1.0 3.2 12 89
- 0.56 1 3 cbr 500 ------- 1 1.0 3.2 12 89
+ 0.56 2 0 cbr 500 ------- 2 2.0 0.2 12 90
- 0.56 2 0 cbr 500 ------- 2 2.0 0.2 12 90
+ 0.56 3 1 cbr 500 ------- 3 3.0 1.2 12 91
- 0.56 3 1 cbr 500 ------- 3 3.0 1.2 12 91
r 0.564 0 2 cbr 500 ------- 0 0.0 2.2 10 72
r 0.564 1 3 cbr 500 ------- 1 1.0 3.2 10 73
r 0.564 2 0 cbr 500 ------- 2 2.0 0.2 10 74
r 0.564 3 1 cbr 500 ------- 3 3.0 1.2 10 75
+ 0.565 0 2 cbr 500 ------- 0 0.0 2.2 13 92
- 0.565 0 2 cbr 500 ------- 0 0.0 2.2 13 92
+ 0.565 1 3 cbr 500 ------- 1 1.0 3.2 13 93
- 0.565 1 3 cbr 500 ------- 1 1.0 3.2 13 93
+ 0.565 2 0 cbr 500 ------- 2 2.0 0.2 13 94
- 0.565 2 0 cbr 500 ------- 2 2.0 0.2 13 94
+ 0.565 3 1 cbr 500 ------- 3 3.0 1.2 13 95
- 0.565 3 1 cbr 500 ------- 3 3.0 1.2 13 95
- 0.56592 0 1 tcp 1040 ------- 0 0.1 1.3 5 80
- 0.56592 1 2 tcp 1040 ------- 1 1.1 2.3 5 82
- 0.56592 2 3 tcp 1040 ------- 2 2.1 3.3 5 84
- 0.56592 3 0 tcp 1040 ------- 3 3.1 0.3 5 86
r 0.5676 0 1 tcp 1040 ------- 0 0.1 1.3 3 64
+ 0.5676 1 0 ack 40 ------- 0 1.3 0.1 3 96
- 0.5676 1 0 ack 40 ------- 0 1.3 0.1 3 96
r 0.5676 1 2 tcp 1040 ------- 1 1.1 2.3 3 66
+ 0.5676 2 1 ack 40 ------- 1 2.3 1.1 3 97
- 0.5676 2 1 ack 40 ------- 1 2.3 1.1 3 97
r 0.5676 2 3 tcp 1040 ------- 2 2.1 3.3 3 68
+ 0.5676 3 2 ack 40 ------- 2 3.3 2.1 3 98
- 0.5676 3 2 ack 40 ------- 2 3.3 2.1 3 98
r 0.5676 3 0 tcp 1040 ------- 3 3.1 0.3 3 70
+ 0.5676 0 3 ack 40 ------- 3 0.3 3.1 3 99
- 0.5676 0 3 ack 40 ------- 3 0.3 3.1 3 99
r 0.569 0 2 cbr 500 ------- 0 0.0 2.2 11 76
r 0.569 1 3 cbr 500 ------- 1 1.0 3.2 11 77
r 0.569 2 0 cbr 500 ------- 2 2.0 0.2 11 78
r 0.569 3 1 cbr 500 ------- 3 3.0 1.2 11 79
+ 0.57 0 2 cbr 500 ------- 0 0.0 2.2 14 100
- 0.57 0 2 cbr 500 ------- 0 0.0 2.2 14 100
+ 0.57 1 3 cbr 500 ------- 1 1.0 3.2 14 101
- 0.57 1 3 cbr 500 ------- 1 1.0 3.2 14 101
+ 0.57 2 0 cbr 500 ------- 2 2.0 0.2 14 102
- 0.57 2 0 cbr 500 ------- 2 2.0 0.2 14 102
+ 0.57 3 1 cbr 500 ------- 3 3.0 1.2 14 103
- 0.57 3 1 cbr 500 ------- 3 3.0 1.2 14 103
r 0.574 0 2 cbr 500 ------- 0 0.0 2.2 12 88
r 0.574 1 3 cbr 500 ------- 1 1.0 3.2 12 89
r 0.574 2 0 cbr 500 ------- 2 2.0 0.2 12 90
r 0.574 3 1 cbr 500 ------- 3 3.0 1.2 12 91
- 0.57424 0 1 tcp 1040 ------- 0 0.1 1.3 6 81
- 0.57424 1 2 tcp 1040 ------- 1 1.1 2.3 6 83
- 0.57424 2 3 tcp 1040 ------- 2 2.1 3.3 6 85
- 0.57424 3 0 tcp 1040 ------- 3 3.1 0.3 6 87
+ 0.575 0 2 cbr 500 ------- 0 0.0 2.2 15 104
- 0.575 0 2 cbr 500 ------- 0 0.0 2.2 15 104
+ 0.575 1 3 cbr 500 ------- 1 1.0 3.2 15 105
- 0.575 1 3 cbr 500 ------- 1 1.0 3.2 15 105
+ 0.575 2 0 cbr 500 ------- 2 2.0 0.2 15 106
- 0.575 2 0 cbr 500 ------- 2 2.0 0.2 15 106
+ 0.575 3 1 cbr 500 ------- 3 3.0 1.2 15 107
- 0.575 3 1 cbr 500 ------- 3 3.0 1.2 15 107
r 0.57592 0 1 tcp 1040 ------- 0 0.1 1.3 4 65
+ 0.57592 1 0 ack 40 ------- 0 1.3 0.1 4 108
- 0.57592 1 0 ack 40 ------- 0 1.3 0.1 4 108
r 0.57592 1 2 tcp 1040 ------- 1 1.1 2.3 4 67
+ 0.57592 2 1 ack 40 ------- 1 2.3 1.1 4 109
- 0.57592 2 1 ack 40 ------- 1 2.3 1.1 4 109
r 0.57592 2 3 tcp 1040 ------- 2 2.1 3.3 4 69
+ 0.57592 3 2 ack 40 ------- 2 3.3 2.1 4 110
- 0.57592 3 2 ack 40 ------- 2 3.3 2.1 4 110
r 0.57592 3 0 tcp 1040 ------- 3 3.1 0.3 4 71
+ 0.57592 0 3 ack 40 ------- 3 0.3 3.1 4 111
- 0.57592 0 3 ack 40 ------- 3 0.3 3.1 4 111
r 0.57792 1 0 ack 40 ------- 0 1.3 0.1 3 96
+ 0.57792 0 1 tcp 1040 ------- 0 0.1 1.3 7 112
+ 0.57792 0 1 tcp 1040 ------- 0 0.1 1.3 8 113
r 0.57792 2 1 ack 40 ------- 1 2.3 1.1 3 97
+ 0.57792 1 2 tcp 1040 ------- 1 1.1 2.3 7 114
+ 0.57792 1 2 tcp 1040 ------- 1 1.1 2.3 8 115
r 0.57792 3 2 ack 40 ------- 2 3.3 2.1 3 98
+ 0.57792 2 3 tcp 1040 ------- 2 2.1 3.3 7 116
+ 0.57792 2 3 tcp 1040 ------- 2 2.1 3.3 8 117
r 0.57792 0 3 ack 40 ------- 3 0.3 3.1 3 99
+ 0.57792 3 0 tcp 1040 ------- 3 3.1 0.3 7 118
+ 0.57792 3 0 tcp 1040 ------- 3 3.1 0.3 8 119
r 0.579 0 2 cbr 500 ------- 0 0.0 2.2 13 92
r 0.579 1 3 cbr 500 ------- 1 1.0 3.2 13 93
r 0.579 2 0 cbr 500 ------- 2 2.0 0.2 13 94
r 0.579 3 1 cbr 500 ------- 3 3.0 1.2 13 95
+ 0.58 0 2 cbr 500 ------- 0 0.0 2.2 16 120
- 0.58 0 2 cbr 500 ------- 0 0.0 2.2 16 120
+ 0.58 1 3 cbr 500 ------- 1 1.0 3.2 16 121
- 0.58 1 3 cbr 500 ------- 1 1.0 3.2 16 121
+ 0.58 2 0 cbr 500 ------- 2 2.0 0.2 16 122
- 0.58 2 0 cbr 500 ------- 2 2.0 0.2 16 122
+ 0.58 3 1 cbr 500 ------- 3 3.0 1.2 16 123
- 0.58 3 1 cbr 500 ------- 3 3.0 1.2 16 123
- 0.58256 0 1 tcp 1040 ------- 0 0.1 1.3 7 112
- 0.58256 1 2 tcp 1040 ------- 1 1.1 2.3 7 114
- 0.58256 2 3 tcp 1040 ------- 2 2.1 3.3 7 116
- 0.58256 3 0 tcp 1040 ------- 3 3.1 0.3 7 118
r 0.584 0 2 cbr 500 ------- 0 0.0 2.2 14 100
r 0.584 1 3 cbr 500 ------- 1 1.0 3.2 14 101
r 0.584 2 0 cbr 500 ------- 2 2.0 0.2 14 102
r 0.584 3 1 cbr 500 ------- 3 3.0 1.2 14 103
r 0.58424 0 1 tcp 1040 ------- 0 0.1 1.3 5 80
+ 0.58424 1 0 ack 40 ------- 0 1.3 0.1 5 124
- 0.58424 1 0 ack 40 ------- 0 1.3 0.1 5 124
r 0.58424 1 2 tcp 1040 ------- 1 1.1 2.3 5 82
+ 0.58424 2 1 ack 40 ------- 1 2.3 1.1 5 125
- 0.58424 2 1 ack 40 ------- 1 2.3 1.1 5 125
r 0.58424 2 3 tcp 1040 ------- 2 2.1 3.3 5 84
+ 0.58424 3 2 ack 40 ------- 2 3.3 2.1 5 126
- 0.58424 3 2 ack 40 ------- 2 3.3 2.1 5 126
r 0.58424 3 0 tcp 1040 ------- 3 3.1 0.3 5 86
+ 0.58424 0 3 ack 40 ------- 3 0.3 3.1 5 127
- 0.58424 0 3 ack 40 ------- 3 0.3 3.1 5 127
+ 0.585 0 2 cbr 500 ------- 0 0.0 2.2 17 128
- 0.585 0 2 cbr 500 ------- 0 0.0 2.2 17 128
+ 0.585 1 3 cbr 500 ------- 1 1.0 3.2 17 129
- 0.585 1 3 cbr 500 ------- 1 1.0 3.2 17 129
+ 0.585 2 0 cbr 500 ------- 2 2.0 0.2 17 130
- 0.585 2 0 cbr 500 ------- 2 2.0 0.2 17 130
+ 0.585 3 1 cbr 500 ------- 3 3.0 1.2 17 131
- 0.585 3 1 cbr 500 ------- 3 3.0 1.2 17 131
r 0.58624 1 0 ack 40 ------- 0 1.3 0.1 4 108
+ 0.58624 0 1 tcp 1040 ------- 0 0.1 1.3 9 132
+ 0.58624 0 1 tcp 1040 ------- 0 0.1 1.3 10 133
r 0.58624 2 1 ack 40 ------- 1 2.3 1.1 4 109
+ 0.58624 1 2 tcp 1040 ------- 1 1.1 2.3 9 134
+ 0.58624 1 2 tcp 1040 ------- 1 1.1 2.3 10 135
r 0.58624 3 2 ack 40 ------- 2 3.3 2.1 4 110
+ 0.58624 2 3 tcp 1040 ------- 2 2.1 3.3 9 136
+ 0.58624 2 3 tcp 1040 ------- 2 2.1 3.3 10 137
r 0.58624 0 3 ack 40 ------- 3 0.3 3.1 4 111
+ 0.58624 3 0 tcp 1040 ------- 3 3.1 0.3 9 138
+ 0.58624 3 0 tcp 1040 ------- 3 3.1 0.3 10 139
r 0.589 0 2 cbr 500 ------- 0 0.0 2.2 15 104
r 0.589 1 3 cbr 500 ------- 1 1.0 3.2 15 105
r 0.589 2 0 cbr 500 ------- 2 2.0 0.2 15 106
r 0.589 3 1 cbr 500 ------- 3 3.0 1.2 15 107
+ 0.59 0 2 cbr 500 ------- 0 0.0 2.2 18 140
- 0.59 0 2 cbr 500 ------- 0 0.0 2.2 18 140
+ 0.59 1 3 cbr 500 ------- 1 1.0 3.2 18 141
- 0.59 1 3 cbr 500 ------- 1 1.0 3.2 18 141
+ 0.59 2 0 cbr 500 ------- 2 2.0 0.2 18 142
- 0.59 2 0 cbr 500 ------- 2 2.0 0.2 18 142
+ 0.59 3 1 cbr 500 ------- 3 3.0 1.2 18 143
- 0.59 3 1 cbr 500 ------- 3 3.0 1.2 18 143
- 0.59088 0 1 tcp 1040 ------- 0 0.1 1.3 8 113
- 0.59088 1 2 tcp 1040 ------- 1 1.1 2.3 8 115
- 0.59088 2 3 tcp 1040 ------- 2 2.1 3.3 8 117
- 0.59088 3 0 tcp 1040 ------- 3 3.1 0.3 8 119
r 0.59256 0 1 tcp 1040 ------- 0 0.1 1.3 6 81
+ 0.59256 1 0 ack 40 ------- 0 1.3 0.1 6 144
- 0.59256 1 0 ack 40 ------- 0 1.3 0.1 6 144
r 0.59256 1 2 tcp 1040 ------- 1 1.1 2.3 6 83
+ 0.59256 2 1 ack 40 ------- 1 2.3 1.1 6 145
- 0.59256 2 1 ack 40 ------- 1 2.3 1.1 6 145
r 0.59256 2 3 tcp 1040 ------- 2 2.1 3.3 6 85
+ 0.59256 3 2 ack 40 ------- 2 3.3 2.1 6 146
- 0.59256 3 2 ack 40 ------- 2 3.3 2.1 6 146
r 0.59256 3 0 tcp 1040 ------- 3 3.1 0.3 6 87
+ 0.59256 0 3 ack 40 ------- 3 0.3 3.1 6 147
- 0.59256 0 3 ack 40 ------- 3 0.3 3.1 6 147
r 0.594 0 2 cbr 500 ------- 0 0.0 2.2 16 120
r 0.594 1 3 cbr 500 ------- 1 1.0 3.2 16 121
r 0.594 2 0 cbr 500 ------- 2 2.0 0.2 16 122
r 0.594 3 1 cbr 500 ------- 3 3.0 1.2 16 123
r 0.59456 1 0 ack 40 ------- 0 1.3 0.1 5 124
+ 0.59456 0 1 tcp 1040 ------- 0 0.1 1.3 11 148
+ 0.59456 0 1 tcp 1040 ------- 0 0.1 1.3 12 149
r 0.59456 2 1 ack 40 ------- 1 2.3 1.1 5 125
+ 0.59456 1 2 tcp 1040 ------- 1 1.1 2.3 11 150
+ 0.59456 1 2 tcp 1040 ------- 1 1.1 2.3 12 151
r 0.59456 3 2 ack 40 ------- 2 3.3 2.1 5 126
+ 0.59456 2 3 tcp 1040 ------- 2 2.1 3.3 11 152
+ 0.59456 2 3 tcp 1040 ------- 2 2.1 3.3 12 153
r 0.59456 0 3 ack 40 ------- 3 0.3 3.1 5 127
+ 0.59456 3 0 tcp 1040 ------- 3 3.1 0.3 11 154
+ 0.59456 3 0 tcp 1040 ------- 3 3.1 0.3 12 155
+ 0.595 0 2 cbr 500 ------- 0 0.0 2.2 19 156
- 0.595 0 2 cbr 500 ------- 0 0.0 2.2 19 156
+ 0.595 1 3 cbr 500 ------- 1 1.0 3.2 19 157
- 0.595 1 3 cbr 500 ------- 1 1.0 3.2 19 157
+ 0.595 2 0 cbr 500 ------- 2 2.0 0.2 19 158
- 0.595 2 0 cbr 500 ------- 2 2.0 0.2 19 158
+ 0.595 3 1 cbr 500 ------- 3 3.0 1.2 19 159
- 0.595 3 1 cbr 500 ------- 3 3.0 1.2 19 159
r 0.599 0 2 cbr 500 ------- 0 0.0 2.2 17 128
r 0.599 1 3 cbr 500 ------- 1 1.0 3.2 17 129
r 0.599 2 0 cbr 500 ------- 2 2.0 0.2 17 130
r 0.599 3 1 cbr 500 ------- 3 3.0 1.2 17 131
- 0.5992 0 1 tcp 1040 ------- 0 0.1 1.3 9 132
- 0.5992 1 2 tcp 1040 ------- 1 1.1 2.3 9 134
- 0.5992 2 3 tcp 1040 ------- 2 2.1 3.3 9 136
- 0.5992 3 0 tcp 1040 ------- 3 3.1 0.3 9 138
+ 0.6 0 2 cbr 500 ------- 0 0.0 2.2 20 160
- 0.6 0 2 cbr 500 ------- 0 0.0 2.2 20 160
+ 0.6 1 3 cbr 500 ------- 1 1.0 3.2 20 161
- 0.6 1 3 cbr 500 ------- 1 1.0 3.2 20 161
+ 0.6 2 0 cbr 500 ------- 2 2.0 0.2 20 162
- 0.6 2 0 cbr 500 ------- 2 2.0 0.2 20 162
+ 0.6 3 1 cbr 500 ------- 3 3.0 1.2 20 163
- 0.6 3 1 cbr 500 ------- 3 3.0 1.2 20 163
r 0.60088 0 1 tcp 1040 ------- 0 0.1 1.3 7 112
+ 0.60088 1 0 ack 40 ------- 0 1.3 0.1 7 164
- 0.60088 1 0 ack 40 ------- 0 1.3 0.1 7 164
r 0.60088 1 2 tcp 1040 ------- 1 1.1 2.3 7 114
+ 0.60088 2 1 ack 40 ------- 1 2.3 1.1 7 165
- 0.60088 2 1 ack 40 ------- 1 2.3 1.1 7 165
r 0.60088 2 3 tcp 1040 ------- 2 2.1 3.3 7 116
+ 0.60088 3 2 ack 40 ------- 2 3.3 2.1 7 166
- 0.60088 3 2 ack 40 ------- 2 3.3 2.1 7 166
r 0.60088 3 0 tcp 1040 ------- 3 3.1 0.3 7 118
+ 0.60088 0 3 ack 40 ------- 3 0.3 3.1 7 167
- 0.60088 0 3 ack 40 ------- 3 0.3 3.1 7 167
r 0.60288 1 0 ack 40 ------- 0 1.3 0.1 6 144
+ 0.60288 0 1 tcp 1040 ------- 0 0.1 1.3 13 168
+ 0.60288 0 1 tcp 1040 ------- 0 0.1 1.3 14 169
r 0.60288 2 1 ack 40 ------- 1 2.3 1.1 6 145
+ 0.60288 1 2 tcp 1040 ------- 1 1.1 2.3 13 170
+ 0.60288 1 2 tcp 1040 ------- 1 1.1 2.3 14 171
r 0.60288 3 2 ack 40 ------- 2 3.3 2.1 6 146
+ 0.60288 2 3 tcp 1040 ------- 2 2.1 3.3 13 172
+ 0.60288 2 3 tcp 1040 ------- 2 2.1 3.3 14 173
r 0.60288 0 3 ack 40 ------- 3 0.3 3.1 6 147
+ 0.60288 3 0 tcp 1040 ------- 3 3.1 0.3 13 174
+ 0.60288 3 0 tcp 1040 ------- 3 3.1 0.3 14 175
r 0.604 0 2 cbr 500 ------- 0 0.0 2.2 18 140
r 0.604 1 3 cbr 500 ------- 1 1.0 3.2 18 141
r 0.604 2 0 cbr 500 ------- 2 2.0 0.2 18 142
r 0.604 3 1 cbr 500 ------- 3 3.0 1.2 18 143
+ 0.605 0 2 cbr 500 ------- 0 0.0 2.2 21 176
- 0.605 0 2 cbr 500 ------- 0 0.0 2.2 21 176
+ 0.605 1 3 cbr 500 ------- 1 1.0 3.2 21 177
- 0.605 1 3 cbr 500 ------- 1 1.0 3.2 21 177
+ 0.605 2 0 cbr 500 ------- 2 2.0 0.2 21 178
- 0.605 2 0 cbr 500 ------- 2 2.0 0.2 21 178
+ 0.605 3 1 cbr 500 ------- 3 3.0 1.2 21 179
- 0.605 3 1 cbr 500 ------- 3 3.0 1.2 21 179
- 0.60752 0 1 tcp 1040 ------- 0 0.1 1.3 10 133
- 0.60752 1 2 tcp 1040 ------- 1 1.1 2.3 10 135
- 0.60752 2 3 tcp 1040 ------- 2 2.1 3.3 10 137
- 0.60752 3 0 tcp 1040 ------- 3 3.1 0.3 10 139
r 0.609 0 2 cbr 500 ------- 0 0.0 2.2 19 156
r 0.609 1 3 cbr 500 ------- 1 1.0 3.2 19 157
r 0.609 2 0 cbr 500 ------- 2 2.0 0.2 19 158
r 0.609 3 1 cbr 500 ------- 3 3.0 1.2 19 159
r 0.6092 0 1 tcp 1040 ------- 0 0.1 1.3 8 113
+ 0.6092 1 0 ack 40 ------- 0 1.3 0.1 8 180
- 0.6092 1 0 ack 40 ------- 0 1.3 0.1 8 180
r 0.6092 1 2 tcp 1040 ------- 1 1.1 2.3 8 115
+ 0.6092 2 1 ack 40 ------- 1 2.3 1.1 8 181
- 0.6092 2 1 ack 40 ------- 1 2.3 1.1 8 181
r 0.6092 2 3 tcp 1040 ------- 2 2.1 3.3 8 117
+ 0.6092 3 2 ack 40 ------- 2 3.3 2.1 8 182
- 0.6092 3 2 ack 40 ------- 2 3.3 2.1 8 182
r 0.6092 3 0 tcp 1040 ------- 3 3.1 0.3 8 119
+ 0.6092 0 3 ack 40 ------- 3 0.3 3.1 8 183
- 0.6092 0 3 ack 40 ------- 3 0.3 3.1 8 183
+ 0.61 0 2 cbr 500 ------- 0 0.0 2.2 22 184
- 0.61 0 2 cbr 500 ------- 0 0.0 2.2 22 184
+ 0.61 1 3 cbr 500 ------- 1 1.0 3.2 22 185
- 0.61 1 3 cbr 500 ------- 1 1.0 3.2 22 185
+ 0.61 2 0 cbr 500 ------- 2 2.0 0.2 22 186
- 0.61 2 0 cbr 500 ------- 2 2.0 0.2 22 186
+ 0.61 3 1 cbr 500 ------- 3 3.0 1.2 22 187
- 0.61 3 1 cbr 500 ------- 3 3.0 1.2 22 187
r 0.6112 1 0 ack 40 ------- 0 1.3 0.1 7 164
+ 0.6112 0 1 tcp 1040 ------- 0 0.1 1.3 15 188
+ 0.6112 0 1 tcp 1040 ------- 0 0.1 1.3 16 189
r 0.6112 2 1 ack 40 ------- 1 2.3 1.1 7 165
+ 0.6112 1 2 tcp 1040 ------- 1 1.1 2.3 15 190
+ 0.6112 1 2 tcp 1040 ------- 1 1.1 2.3 16 191
r 0.6112 3 2 ack 40 ------- 2 3.3 2.1 7 166
+ 0.6112 2 3 tcp 1040 ------- 2 2.1 3.3 15 192
+ 0.6112 2 3 tcp 1040 ------- 2 2.1 3.3 16 193
r 0.6112 0 3 ack 40 ------- 3 0.3 3.1 7 167
+ 0.6112 3 0 tcp 1040 ------- 3 3.1 0.3 15 194
+ 0.6112 3 0 tcp 1040 ------- 3 3.1 0.3 16 195
r 0.614 0 2 cbr 500 ------- 0 0.0 2.2 20 160
r 0.614 1 3 cbr 500 ------- 1 1.0 3.2 20 161
r 0.614 2 0 cbr 500 ------- 2 2.0 0.2 20 162
r 0.614 3 1 cbr 500 ------- 3 3.0 1.2 20 163
+ 0.615 0 2 cbr 500 ------- 0 0.0 2.2 23 196
- 0.615 0 2 cbr 500 ------- 0 0.0 2.2 23 196
+ 0.615 1 3 cbr 500 ------- 1 1.0 3.2 23 197
- 0.615 1 3 cbr 500 ------- 1 1.0 3.2 23 197
+ 0.615 2 0 cbr 500 ------- 2 2.0 0.2 23 198
- 0.615 2 0 cbr 500 ------- 2 2.0 0.2 23 198
+ 0.615 3 1 cbr 500 ------- 3 3.0 1.2 23 199
- 0.615 3 1 cbr 500 ------- 3 3.0 1.2 23 199
- 0.61584 0 1 tcp 1040 ------- 0 0.1 1.3 11 148
- 0.61584 1 2 tcp 1040 ------- 1 1.1 2.3 11 150
- 0.61584 2 3 tcp 1040 ------- 2 2.1 3.3 11 152
- 0.61584 3 0 tcp 1040 ------- 3 3.1 0.3 11 154
r 0.61752 0 1 tcp 1040 ------- 0 0.1 1.3 9 132
+ 0.61752 1 0 ack 40 ------- 0 1.3 0.1 9 200
- 0.61752 1 0 ack 40 ------- 0 1.3 0.1 9 200
r 0.61752 1 2 tcp 1040 ------- 1 1.1 2.3 9 134
+ 0.61752 2 1 ack 40 ------- 1 2.3 1.1 9 201
- 0.61752 2 1 ack 40 ------- 1 2.3 1.1 9 201
r 0.61752 2 3 tcp 1040 ------- 2 2.1 3.3 9 136
+ 0.61752 3 2 ack 40 ------- 2 3.3 2.1 9 202
- 0.61752 3 2 ack 40 ------- 2 3.3 2.1 9 202
r 0.61752 3 0 tcp 1040 ------- 3 3.1 0.3 9 138
+ 0.61752 0 3 ack 40 ------- 3 0.3 3.1 9 203
- 0.61752 0 3 ack 40 ------- 3 0.3 3.1 9 203
r 0.619 0 2 cbr 500 ------- 0 0.0 2.2 21 176
r 0.619 1 3 cbr 500 ------- 1 1.0 3.2 21 177
r 0.619 2 0 cbr 500 ------- 2 2.0 0.2 21 178
r 0.619 3 1 cbr 500 ------- 3 3.0 1.2 21 179
r 0.61952 1 0 ack 40 ------- 0 1.3 0.1 8 180
+ 0.61952 0 1 tcp 1040 ------- 0 0.1 1.3 17 204
+ 0.61952 0 1 tcp 1040 ------- 0 0.1 1.3 18 205
r 0.61952 2 1 ack 40 ------- 1 2.3 1.1 8 181
+ 0.61952 1 2 tcp 1040 ------- 1 1.1 2.3 17 206
+ 0.61952 1 2 tcp 1040 ------- 1 1.1 2.3 18 207
r 0.61952 3 2 ack 40 ------- 2 3.3 2.1 8 182
+ 0.61952 2 3 tcp 1040 ------- 2 2.1 3.3 17 208
+ 0.61952 2 3 tcp 1040 ------- 2 2.1 3.3 18 209
r 0.61952 0 3 ack 40 ------- 3 0.3 3.1 8 183
+ 0.61952 3 0 tcp 1040 ------- 3 3.1 0.3 17 210
+ 0.61952 3 0 tcp 1040 ------- 3 3.1 0.3 18 211
+ 0.62 0 2 cbr 500 ------- 0 0.0 2.2 24 212
- 0.62 0 2 cbr 500 ------- 0 0.0 2.2 24 212
+ 0.62 1 3 cbr 500 ------- 1 1.0 3.2 24 213
- 0.62 1 3 cbr 500 ------- 1 1.0 3.2 24 213
+ 0.62 2 0 cbr 500 ------- 2 2.0 0.2 24 214
- 0.62 2 0 cbr 500 ------- 2 2.0 0.2 24 214
+ 0.62 3 1 cbr 500 ------- 3 3.0 1.2 24 215
- 0.62 3 1 cbr 500 ------- 3 3.0 1.2 24 215
r 0.624 0 2 cbr 500 ------- 0 0.0 2.2 22 184
r 0.624 1 3 cbr 500 ------- 1 1.0 3.2 22 185
r 0.624 2 0 cbr 500 ------- 2 2.0 0.2 22 186
r 0.624 3 1 cbr 500 ------- 3 3.0 1.2 22 187
- 0.62416 0 1 tcp 1040 ------- 0 0.1 1.3 12 149
- 0.62416 1 2 tcp 1040 ------- 1 1.1 2.3 12 151
- 0.62416 2 3 tcp 1040 ------- 2 2.1 3.3 12 153
- 0.62416 3 0 tcp 1040 ------- 3 3.1 0.3 12 155
+ 0.625 0 2 cbr 500 ------- 0 0.0 2.2 25 216
- 0.625 0 2 cbr 500 ------- 0 0.0 2.2 25 216
+ 0.625 1 3 cbr 500 ------- 1 1.0 3.2 25 217
- 0.625 1 3 cbr 500 ------- 1 1.0 3.2 25 217
+ 0.625 2 0 cbr 500 ------- 2 2.0 0.2 25 218
- 0.625 2 0 cbr 500 ------- 2 2.0 0.2 25 218
+ 0.625 3 1 cbr 500 ------- 3 3.0 1.2 25 219
- 0.625 3 1 cbr 500 ------- 3 3.0 1.2 25 219
r 0.62584 0 1 tcp 1040 ------- 0 0.1 1.3 10 133
+ 0.62584 1 0 ack 40 ------- 0 1.3 0.1 10 220
- 0.62584 1 0 ack 40 ------- 0 1.3 0.1 10 220
r 0.62584 1 2 tcp 1040 ------- 1 1.1 2.3 10 135
+ 0.62584 2 1 ack 40 ------- 1 2.3 1.1 10 221
- 0.62584 2 1 ack 40 ------- 1 2.3 1.1 10 221
r 0.62584 2 3 tcp 1040 ------- 2 2.1 3.3 10 137
+ 0.62584 3 2 ack 40 ------- 2 3.3 2.1 10 222
- 0.62584 3 2 ack 40 ------- 2 3.3 2.1 10 222
r 0.62584 3 0 tcp 1040 ------- 3 3.1 0.3 10 139
+ 0.62584 0 3 ack 40 ------- 3 0.3 3.1 10 223
- 0.62584 0 3 ack 40 ------- 3 0.3 3.1 10 223
r 0.62784 1 0 ack 40 ------- 0 1.3 0.1 9 200
+ 0.62784 0 1 tcp 1040 ------- 0 0.1 1.3 19 224
+ 0.62784 0 1 tcp 1040 ------- 0 0.1 1.3 20 225
r 0.62784 2 1 ack 40 ------- 1 2.3 1.1 9 201
+ 0.62784 1 2 tcp 1040 ------- 1 1.1 2.3 19 226
+ 0.62784 1 2 tcp 1040 ------- 1 1.1 2.3 20 227
r 0.62784 3 2 ack 40 ------- 2 3.3 2.1 9 202
+ 0.62784 2 3 tcp 1040 ------- 2 2.1 3.3 19 228
+ 0.62784 2 3 tcp 1040 ------- 2 2.1 3.3 20 229
r 0.62784 0 3 ack 40 ------- 3 0.3 3.1 9 203
+ 0.62784 3 0 tcp 1040 ------- 3 3.1 0.3 19 230
+ 0.62784 3 0 tcp 1040 ------- 3 3.1 0.3 20 231
r 0.629 0 2 cbr 500 ------- 0 0.0 2.2 23 196
r 0.629 1 3 cbr 500 ------- 1 1.0 3.2 23 197
r 0.629 2 0 cbr 500 ------- 2 2.0 0.2 23 198
r 0.629 3 1 cbr 500 ------- 3 3.0 1.2 23 199
+ 0.63 0 2 cbr 500 ------- 0 0.0 2.2 26 232
- 0.63 0 2 cbr 500 ------- 0 0.0 2.2 26 232
+ 0.63 1 3 cbr 500 ------- 1 1.0 3.2 26 233
- 0.63 1 3 cbr 500 ------- 1 1.0 3.2 26 233
+ 0.63 2 0 cbr 500 ------- 2 2.0 0.2 26 234
- 0.63 2 0 cbr 500 ------- 2 2.0 0.2 26 234
+ 0.63 3 1 cbr 500 ------- 3 3.0 1.2 26 235
- 0.63 3 1 cbr 500 ------- 3 3.0 1.2 26 235
- 0.63248 0 1 tcp 1040 ------- 0 0.1 1.3 13 168
- 0.63248 1 2 tcp 1040 ------- 1 1.1 2.3 13 170
- 0.63248 2 3 tcp 1040 ------- 2 2.1 3.3 13 172
- 0.63248 3 0 tcp 1040 ------- 3 3.1 0.3 13 174
r 0.634 0 2 cbr 500 ------- 0 0.0 2.2 24 212
r 0.634 1 3 cbr 500 ------- 1 1.0 3.2 24 213
r 0.634 2 0 cbr 500 ------- 2 2.0 0.2 24 214
r 0.634 3 1 cbr 500 ------- 3 3.0 1.2 24 215
r 0.63416 0 1 tcp 1040 ------- 0 0.1 1.3 11 148
+ 0.63416 1 0 ack 40 ------- 0 1.3 0.1 11 236
- 0.63416 1 0 ack 40 ------- 0 1.3 0.1 11 236
r 0.63416 1 2 tcp 1040 ------- 1 1.1 2.3 11 150
+ 0.63416 2 1 ack 40 ------- 1 2.3 1.1 11 237
- 0.63416 2 1 ack 40 ------- 1 2.3 1.1 11 237
r 0.63416 2 3 tcp 1040 ------- 2 2.1 3.3 11 152
+ 0.63416 3 2 ack 40 ------- 2 3.3 2.1 11 238
- 0.63416 3 2 ack 40 ------- 2 3.3 2.1 11 238
r 0.63416 3 0 tcp 1040 ------- 3 3.1 0.3 11 154
+ 0.63416 0 3 ack 40 ------- 3 0.3 3.1 11 239
- 0.63416 0 3 ack 40 ------- 3 0.3 3.1 11 239
+ 0.635 0 2 cbr 500 ------- 0 0.0 2.2 27 240
- 0.635 0 2 cbr 500 ------- 0 0.0 2.2 27 240
+ 0.635 1 3 cbr 500 ------- 1 1.0 3.2 27 241
- 0.635 1 3 cbr 500 ------- 1 1.0 3.2 27 241
+ 0.635 2 0 cbr 500 ------- 2 2.0 0.2 27 242
- 0.635 2 0 cbr 500 ------- 2 2.0 0.2 27 242
+ 0.635 3 1 cbr 500 ------- 3 3.0 1.2 27 243
- 0.635 3 1 cbr 500 ------- 3 3.0 1.2 27 243
r 0.63616 1 0 ack 40 ------- 0 1.3 0.1 10 220
+ 0.63616 0 1 tcp 1040 ------- 0 0.1 1.3 21 244
+ 0.63616 0 1 tcp 1040 ------- 0 0.1 1.3 22 245
r 0.63616 2 1 ack 40 ------- 1 2.3 1.1 10 221
+ 0.63616 1 2 tcp 1040 ------- 1 1.1 2.3 21 246
+ 0.63616 1 2 tcp 1040 ------- 1 1.1 2.3 22 247
r 0.63616 3 2 ack 40 ------- 2 3.3 2.1 10 222
+ 0.63616 2 3 tcp 1040 ------- 2 2.1 3.3 21 248
+ 0.63616 2 3 tcp 1040 ------- 2 2.1 3.3 22 249
r 0.63616 0 3 ack 40 ------- 3 0.3 3.1 10 223
+ 0.63616 3 0 tcp 1040 ------- 3 3.1 0.3 21 250
+ 0.63616 3 0 tcp 1040 ------- 3 3.1 0.3 22 251
r 0.639 0 2 cbr 500 ------- 0 0.0 2.2 25 216
r 0.639 1 3 cbr 500 ------- 1 1.0 3.2 25 217
r 0.639 2 0 cbr 500 ------- 2 2.0 0.2 25 218
r 0.639 3 1 cbr 500 ------- 3 3.0 1.2 25 219
+ 0.64 0 2 cbr 500 ------- 0 0.0 2.2 28 252
- 0.64 0 2 cbr 500 ------- 0 0.0 2.2 28 252
+ 0.64 1 3 cbr 500 ------- 1 1.0 3.2 28 253
- 0.64 1 3 cbr 500 ------- 1 1.0 3.2 28 253
+ 0.64 2 0 cbr 500 ------- 2 2.0 0.2 28 254
- 0.64 2 0 cbr 500 ------- 2 2.0 0.2 28 254
+ 0.64 3 1 cbr 500 ------- 3 3.0 1.2 28 255