V -t * -v 1.0a5 -a 0
A -t * -n 1 -p 0 -o 0x7fffffff -c 30 -a 1
A -t * -h 1 -m 1073741823 -s 0
c -t * -i 0 -n Blue
c -t * -i 1 -n Red
c -t * -i 2 -n Green
c -t * -i 3 -n Orange
n -t * -a 0 -s 0 -S UP -v circle -c blue -i blue
n -t * -a 1 -s 1 -S UP -v circle -c red -i red
n -t * -a 2 -s 2 -S UP -v circle -c green -i green
n -t * -a 3 -s 3 -S UP -v circle -c orange -i orange
X -t * -n 4 -r 1Mb -D 40ms -o left
L -t * -s 4 -d 0 -o up
L -t * -s 4 -d 1 -o down
L -t * -s 4 -d 2 -o up
L -t * -s 4 -d 3 -o down
n -t 0 -s 0 -S DLABEL -l "node0" -L ""
n -t 0 -s 1 -S DLABEL -l "node1" -L ""
n -t 0 -s 2 -S DLABEL -l "node2" -L ""
n -t 0 -s 3 -S DLABEL -l "node3" -L ""
h -t 0.5 -s 0 -d 4 -p tcp -e 40 -c 0 -i 0 -a 0 -x {0.1 1.3 0 ------- null}
h -t 0.5 -s 0 -d 4 -p cbr -e 500 -c 0 -i 1 -a 0 -x {0.0 2.2 0 ------- null}
h -t 0.5 -s 1 -d 4 -p tcp -e 40 -c 1 -i 2 -a 1 -x {1.1 2.3 0 ------- null}
h -t 0.5 -s 1 -d 4 -p cbr -e 500 -c 1 -i 3 -a 1 -x {1.0 3.2 0 ------- null}
h -t 0.5 -s 2 -d 4 -p tcp -e 40 -c 2 -i 4 -a 2 -x {2.1 3.3 0 ------- null}
h -t 0.5 -s 2 -d 4 -p cbr -e 500 -c 2 -i 5 -a 2 -x {2.0 0.2 0 ------- null}
h -t 0.5 -s 3 -d 4 -p tcp -e 40 -c 3 -i 6 -a 3 -x {3.1 0.3 0 ------- null}
h -t 0.5 -s 3 -d 4 -p cbr -e 500 -c 3 -i 7 -a 3 -x {3.0 1.2 0 ------- null}
h -t 0.505 -s 0 -d 4 -p cbr -e 500 -c 0 -i 8 -a 0 -x {0.0 2.2 1 ------- null}
h -t 0.505 -s 1 -d 4 -p cbr -e 500 -c 1 -i 9 -a 1 -x {1.0 3.2 1 ------- null}
h -t 0.505 -s 2 -d 4 -p cbr -e 500 -c 2 -i 10 -a 2 -x {2.0 0.2 1 ------- null}
h -t 0.505 -s 3 -d 4 -p cbr -e 500 -c 3 -i 11 -a 3 -x {3.0 1.2 1 ------- null}
h -t 0.51 -s 0 -d 4 -p cbr -e 500 -c 0 -i 12 -a 0 -x {0.0 2.2 2 ------- null}
h -t 0.51 -s 1 -d 4 -p cbr -e 500 -c 1 -i 13 -a 1 -x {1.0 3.2 2 ------- null}
h -t 0.51 -s 2 -d 4 -p cbr -e 500 -c 2 -i 14 -a 2 -x {2.0 0.2 2 ------- null}
h -t 0.51 -s 3 -d 4 -p cbr -e 500 -c 3 -i 15 -a 3 -x {3.0 1.2 2 ------- null}
h -t 0.515 -s 0 -d 4 -p cbr -e 500 -c 0 -i 16 -a 0 -x {0.0 2.2 3 ------- null}
h -t 0.515 -s 1 -d 4 -p cbr -e 500 -c 1 -i 17 -a 1 -x {1.0 3.2 3 ------- null}
h -t 0.515 -s 2 -d 4 -p cbr -e 500 -c 2 -i 18 -a 2 -x {2.0 0.2 3 ------- null}
h -t 0.515 -s 3 -d 4 -p cbr -e 500 -c 3 -i 19 -a 3 -x {3.0 1.2 3 ------- null}
h -t 0.52 -s 0 -d 4 -p cbr -e 500 -c 0 -i 20 -a 0 -x {0.0 2.2 4 ------- null}
h -t 0.52 -s 1 -d 4 -p cbr -e 500 -c 1 -i 21 -a 1 -x {1.0 3.2 4 ------- null}
h -t 0.52 -s 2 -d 4 -p cbr -e 500 -c 2 -i 22 -a 2 -x {2.0 0.2 4 ------- null}
h -t 0.52 -s 3 -d 4 -p cbr -e 500 -c 3 -i 23 -a 3 -x {3.0 1.2 4 ------- null}
h -t 0.525 -s 0 -d 4 -p cbr -e 500 -c 0 -i 24 -a 0 -x {0.0 2.2 5 ------- null}
h -t 0.525 -s 1 -d 4 -p cbr -e 500 -c 1 -i 25 -a 1 -x {1.0 3.2 5 ------- null}
h -t 0.525 -s 2 -d 4 -p cbr -e 500 -c 2 -i 26 -a 2 -x {2.0 0.2 5 ------- null}
h -t 0.525 -s 3 -d 4 -p cbr -e 500 -c 3 -i 27 -a 3 -x {3.0 1.2 5 ------- null}
h -t 0.53 -s 0 -d 4 -p cbr -e 500 -c 0 -i 28 -a 0 -x {0.0 2.2 6 ------- null}
h -t 0.53 -s 1 -d 4 -p cbr -e 500 -c 1 -i 29 -a 1 -x {1.0 3.2 6 ------- null}
h -t 0.53 -s 2 -d 4 -p cbr -e 500 -c 2 -i 30 -a 2 -x {2.0 0.2 6 ------- null}
h -t 0.53 -s 3 -d 4 -p cbr -e 500 -c 3 -i 31 -a 3 -x {3.0 1.2 6 ------- null}
h -t 0.535 -s 0 -d 4 -p cbr -e 500 -c 0 -i 32 -a 0 -x {0.0 2.2 7 ------- null}
h -t 0.535 -s 1 -d 4 -p cbr -e 500 -c 1 -i 33 -a 1 -x {1.0 3.2 7 ------- null}
h -t 0.535 -s 2 -d 4 -p cbr -e 500 -c 2 -i 34 -a 2 -x {2.0 0.2 7 ------- null}
h -t 0.535 -s 3 -d 4 -p cbr -e 500 -c 3 -i 35 -a 3 -x {3.0 1.2 7 ------- null}
+ -t 0.54 -s 0 -d 4 -p tcp -e 40 -c 0 -i 0 -a 0 -x {0.1 1.3 0 ------- null}
- -t 0.54 -s 0 -d 4 -p tcp -e 40 -c 0 -i 0 -a 0 -x {0.1 1.3 0 ------- null}
h -t 0.54 -s 0 -d 4 -p tcp -e 40 -c 0 -i 0 -a 0 -x {0.1 1.3 -1 ------- null}
+ -t 0.54 -s 0 -d 4 -p cbr -e 500 -c 0 -i 1 -a 0 -x {0.0 2.2 0 ------- null}
+ -t 0.54 -s 1 -d 4 -p tcp -e 40 -c 1 -i 2 -a 1 -x {1.1 2.3 0 ------- null}
- -t 0.54 -s 1 -d 4 -p tcp -e 40 -c 1 -i 2 -a 1 -x {1.1 2.3 0 ------- null}
h -t 0.54 -s 1 -d 4 -p tcp -e 40 -c 1 -i 2 -a 1 -x {1.1 2.3 -1 ------- null}
+ -t 0.54 -s 1 -d 4 -p cbr -e 500 -c 1 -i 3 -a 1 -x {1.0 3.2 0 ------- null}
+ -t 0.54 -s 2 -d 4 -p tcp -e 40 -c 2 -i 4 -a 2 -x {2.1 3.3 0 ------- null}
- -t 0.54 -s 2 -d 4 -p tcp -e 40 -c 2 -i 4 -a 2 -x {2.1 3.3 0 ------- null}
h -t 0.54 -s 2 -d 4 -p tcp -e 40 -c 2 -i 4 -a 2 -x {2.1 3.3 -1 ------- null}
+ -t 0.54 -s 2 -d 4 -p cbr -e 500 -c 2 -i 5 -a 2 -x {2.0 0.2 0 ------- null}
+ -t 0.54 -s 3 -d 4 -p tcp -e 40 -c 3 -i 6 -a 3 -x {3.1 0.3 0 ------- null}
- -t 0.54 -s 3 -d 4 -p tcp -e 40 -c 3 -i 6 -a 3 -x {3.1 0.3 0 ------- null}
h -t 0.54 -s 3 -d 4 -p tcp -e 40 -c 3 -i 6 -a 3 -x {3.1 0.3 -1 ------- null}
+ -t 0.54 -s 3 -d 4 -p cbr -e 500 -c 3 -i 7 -a 3 -x {3.0 1.2 0 ------- null}
h -t 0.54 -s 0 -d 4 -p cbr -e 500 -c 0 -i 36 -a 0 -x {0.0 2.2 8 ------- null}
h -t 0.54 -s 1 -d 4 -p cbr -e 500 -c 1 -i 37 -a 1 -x {1.0 3.2 8 ------- null}
h -t 0.54 -s 2 -d 4 -p cbr -e 500 -c 2 -i 38 -a 2 -x {2.0 0.2 8 ------- null}
h -t 0.54 -s 3 -d 4 -p cbr -e 500 -c 3 -i 39 -a 3 -x {3.0 1.2 8 ------- null}
d -t 0.540004 -s 3 -d 4 -p tcp -e 40 -c 0 -i 0 -a 0 -x {0.1 1.3 0 ------- null}
d -t 0.540004 -s 2 -d 4 -p tcp -e 40 -c 0 -i 0 -a 0 -x {0.1 1.3 0 ------- null}
d -t 0.540004 -s 3 -d 4 -p tcp -e 40 -c 1 -i 2 -a 1 -x {1.1 2.3 0 ------- null}
d -t 0.540004 -s 0 -d 4 -p tcp -e 40 -c 1 -i 2 -a 1 -x {1.1 2.3 0 ------- null}
d -t 0.540004 -s 1 -d 4 -p tcp -e 40 -c 2 -i 4 -a 2 -x {2.1 3.3 0 ------- null}
d -t 0.540004 -s 0 -d 4 -p tcp -e 40 -c 2 -i 4 -a 2 -x {2.1 3.3 0 ------- null}
d -t 0.540004 -s 2 -d 4 -p tcp -e 40 -c 3 -i 6 -a 3 -x {3.1 0.3 0 ------- null}
d -t 0.540004 -s 1 -d 4 -p tcp -e 40 -c 3 -i 6 -a 3 -x {3.1 0.3 0 ------- null}
- -t 0.540416 -s 0 -d 4 -p cbr -e 500 -c 0 -i 1 -a 0 -x {0.0 2.2 0 ------- null}
h -t 0.540416 -s 0 -d 4 -p cbr -e 500 -c 0 -i 1 -a 0 -x {0.0 2.2 -1 ------- null}
- -t 0.540416 -s 1 -d 4 -p cbr -e 500 -c 1 -i 3 -a 1 -x {1.0 3.2 0 ------- null}
h -t 0.540416 -s 1 -d 4 -p cbr -e 500 -c 1 -i 3 -a 1 -x {1.0 3.2 -1 ------- null}
- -t 0.540416 -s 2 -d 4 -p cbr -e 500 -c 2 -i 5 -a 2 -x {2.0 0.2 0 ------- null}
h -t 0.540416 -s 2 -d 4 -p cbr -e 500 -c 2 -i 5 -a 2 -x {2.0 0.2 -1 ------- null}
- -t 0.540416 -s 3 -d 4 -p cbr -e 500 -c 3 -i 7 -a 3 -x {3.0 1.2 0 ------- null}
h -t 0.540416 -s 3 -d 4 -p cbr -e 500 -c 3 -i 7 -a 3 -x {3.0 1.2 -1 ------- null}
d -t 0.54042 -s 3 -d 4 -p cbr -e 500 -c 0 -i 1 -a 0 -x {0.0 2.2 0 ------- null}
d -t 0.54042 -s 1 -d 4 -p cbr -e 500 -c 0 -i 1 -a 0 -x {0.0 2.2 0 ------- null}
d -t 0.54042 -s 2 -d 4 -p cbr -e 500 -c 1 -i 3 -a 1 -x {1.0 3.2 0 ------- null}
d -t 0.54042 -s 0 -d 4 -p cbr -e 500 -c 1 -i 3 -a 1 -x {1.0 3.2 0 ------- null}
d -t 0.54042 -s 3 -d 4 -p cbr -e 500 -c 2 -i 5 -a 2 -x {2.0 0.2 0 ------- null}
d -t 0.54042 -s 1 -d 4 -p cbr -e 500 -c 2 -i 5 -a 2 -x {2.0 0.2 0 ------- null}
d -t 0.54042 -s 2 -d 4 -p cbr -e 500 -c 3 -i 7 -a 3 -x {3.0 1.2 0 ------- null}
d -t 0.54042 -s 0 -d 4 -p cbr -e 500 -c 3 -i 7 -a 3 -x {3.0 1.2 0 ------- null}
+ -t 0.545 -s 0 -d 4 -p cbr -e 500 -c 0 -i 8 -a 0 -x {0.0 2.2 1 ------- null}
- -t 0.545 -s 0 -d 4 -p cbr -e 500 -c 0 -i 8 -a 0 -x {0.0 2.2 1 ------- null}
h -t 0.545 -s 0 -d 4 -p cbr -e 500 -c 0 -i 8 -a 0 -x {0.0 2.2 -1 ------- null}
+ -t 0.545 -s 1 -d 4 -p cbr -e 500 -c 1 -i 9 -a 1 -x {1.0 3.2 1 ------- null}
- -t 0.545 -s 1 -d 4 -p cbr -e 500 -c 1 -i 9 -a 1 -x {1.0 3.2 1 ------- null}
h -t 0.545 -s 1 -d 4 -p cbr -e 500 -c 1 -i 9 -a 1 -x {1.0 3.2 -1 ------- null}
+ -t 0.545 -s 2 -d 4 -p cbr -e 500 -c 2 -i 10 -a 2 -x {2.0 0.2 1 ------- null}
- -t 0.545 -s 2 -d 4 -p cbr -e 500 -c 2 -i 10 -a 2 -x {2.0 0.2 1 ------- null}
h -t 0.545 -s 2 -d 4 -p cbr -e 500 -c 2 -i 10 -a 2 -x {2.0 0.2 -1 ------- null}
+ -t 0.545 -s 3 -d 4 -p cbr -e 500 -c 3 -i 11 -a 3 -x {3.0 1.2 1 ------- null}
- -t 0.545 -s 3 -d 4 -p cbr -e 500 -c 3 -i 11 -a 3 -x {3.0 1.2 1 ------- null}
h -t 0.545 -s 3 -d 4 -p cbr -e 500 -c 3 -i 11 -a 3 -x {3.0 1.2 -1 ------- null}
h -t 0.545 -s 0 -d 4 -p cbr -e 500 -c 0 -i 40 -a 0 -x {0.0 2.2 9 ------- null}
h -t 0.545 -s 1 -d 4 -p cbr -e 500 -c 1 -i 41 -a 1 -x {1.0 3.2 9 ------- null}
h -t 0.545 -s 2 -d 4 -p cbr -e 500 -c 2 -i 42 -a 2 -x {2.0 0.2 9 ------- null}
h -t 0.545 -s 3 -d 4 -p cbr -e 500 -c 3 -i 43 -a 3 -x {3.0 1.2 9 ------- null}
d -t 0.545004 -s 3 -d 4 -p cbr -e 500 -c 0 -i 8 -a 0 -x {0.0 2.2 1 ------- null}
d -t 0.545004 -s 1 -d 4 -p cbr -e 500 -c 0 -i 8 -a 0 -x {0.0 2.2 1 ------- null}
d -t 0.545004 -s 2 -d 4 -p cbr -e 500 -c 1 -i 9 -a 1 -x {1.0 3.2 1 ------- null}
d -t 0.545004 -s 0 -d 4 -p cbr -e 500 -c 1 -i 9 -a 1 -x {1.0 3.2 1 ------- null}
d -t 0.545004 -s 3 -d 4 -p cbr -e 500 -c 2 -i 10 -a 2 -x {2.0 0.2 1 ------- null}
d -t 0.545004 -s 1 -d 4 -p cbr -e 500 -c 2 -i 10 -a 2 -x {2.0 0.2 1 ------- null}
d -t 0.545004 -s 2 -d 4 -p cbr -e 500 -c 3 -i 11 -a 3 -x {3.0 1.2 1 ------- null}
d -t 0.545004 -s 0 -d 4 -p cbr -e 500 -c 3 -i 11 -a 3 -x {3.0 1.2 1 ------- null}
+ -t 0.55 -s 0 -d 4 -p cbr -e 500 -c 0 -i 12 -a 0 -x {0.0 2.2 2 ------- null}
- -t 0.55 -s 0 -d 4 -p cbr -e 500 -c 0 -i 12 -a 0 -x {0.0 2.2 2 ------- null}
h -t 0.55 -s 0 -d 4 -p cbr -e 500 -c 0 -i 12 -a 0 -x {0.0 2.2 -1 ------- null}
+ -t 0.55 -s 1 -d 4 -p cbr -e 500 -c 1 -i 13 -a 1 -x {1.0 3.2 2 ------- null}
- -t 0.55 -s 1 -d 4 -p cbr -e 500 -c 1 -i 13 -a 1 -x {1.0 3.2 2 ------- null}
h -t 0.55 -s 1 -d 4 -p cbr -e 500 -c 1 -i 13 -a 1 -x {1.0 3.2 -1 ------- null}
+ -t 0.55 -s 2 -d 4 -p cbr -e 500 -c 2 -i 14 -a 2 -x {2.0 0.2 2 ------- null}
- -t 0.55 -s 2 -d 4 -p cbr -e 500 -c 2 -i 14 -a 2 -x {2.0 0.2 2 ------- null}
h -t 0.55 -s 2 -d 4 -p cbr -e 500 -c 2 -i 14 -a 2 -x {2.0 0.2 -1 ------- null}
+ -t 0.55 -s 3 -d 4 -p cbr -e 500 -c 3 -i 15 -a 3 -x {3.0 1.2 2 ------- null}
- -t 0.55 -s 3 -d 4 -p cbr -e 500 -c 3 -i 15 -a 3 -x {3.0 1.2 2 ------- null}
h -t 0.55 -s 3 -d 4 -p cbr -e 500 -c 3 -i 15 -a 3 -x {3.0 1.2 -1 ------- null}
h -t 0.55 -s 0 -d 4 -p cbr -e 500 -c 0 -i 44 -a 0 -x {0.0 2.2 10 ------- null}
h -t 0.55 -s 1 -d 4 -p cbr -e 500 -c 1 -i 45 -a 1 -x {1.0 3.2 10 ------- null}
h -t 0.55 -s 2 -d 4 -p cbr -e 500 -c 2 -i 46 -a 2 -x {2.0 0.2 10 ------- null}
h -t 0.55 -s 3 -d 4 -p cbr -e 500 -c 3 -i 47 -a 3 -x {3.0 1.2 10 ------- null}
d -t 0.550004 -s 3 -d 4 -p cbr -e 500 -c 0 -i 12 -a 0 -x {0.0 2.2 2 ------- null}
d -t 0.550004 -s 1 -d 4 -p cbr -e 500 -c 0 -i 12 -a 0 -x {0.0 2.2 2 ------- null}
d -t 0.550004 -s 2 -d 4 -p cbr -e 500 -c 1 -i 13 -a 1 -x {1.0 3.2 2 ------- null}
d -t 0.550004 -s 0 -d 4 -p cbr -e 500 -c 1 -i 13 -a 1 -x {1.0 3.2 2 ------- null}
d -t 0.550004 -s 3 -d 4 -p cbr -e 500 -c 2 -i 14 -a 2 -x {2.0 0.2 2 ------- null}
d -t 0.550004 -s 1 -d 4 -p cbr -e 500 -c 2 -i 14 -a 2 -x {2.0 0.2 2 ------- null}
d -t 0.550004 -s 2 -d 4 -p cbr -e 500 -c 3 -i 15 -a 3 -x {3.0 1.2 2 ------- null}
d -t 0.550004 -s 0 -d 4 -p cbr -e 500 -c 3 -i 15 -a 3 -x {3.0 1.2 2 ------- null}
+ -t 0.555 -s 0 -d 4 -p cbr -e 500 -c 0 -i 16 -a 0 -x {0.0 2.2 3 ------- null}
- -t 0.555 -s 0 -d 4 -p cbr -e 500 -c 0 -i 16 -a 0 -x {0.0 2.2 3 ------- null}
h -t 0.555 -s 0 -d 4 -p cbr -e 500 -c 0 -i 16 -a 0 -x {0.0 2.2 -1 ------- null}
+ -t 0.555 -s 1 -d 4 -p cbr -e 500 -c 1 -i 17 -a 1 -x {1.0 3.2 3 ------- null}
- -t 0.555 -s 1 -d 4 -p cbr -e 500 -c 1 -i 17 -a 1 -x {1.0 3.2 3 ------- null}
h -t 0.555 -s 1 -d 4 -p cbr -e 500 -c 1 -i 17 -a 1 -x {1.0 3.2 -1 ------- null}
+ -t 0.555 -s 2 -d 4 -p cbr -e 500 -c 2 -i 18 -a 2 -x {2.0 0.2 3 ------- null}
- -t 0.555 -s 2 -d 4 -p cbr -e 500 -c 2 -i 18 -a 2 -x {2.0 0.2 3 ------- null}
h -t 0.555 -s 2 -d 4 -p cbr -e 500 -c 2 -i 18 -a 2 -x {2.0 0.2 -1 ------- null}
+ -t 0.555 -s 3 -d 4 -p cbr -e 500 -c 3 -i 19 -a 3 -x {3.0 1.2 3 ------- null}
- -t 0.555 -s 3 -d 4 -p cbr -e 500 -c 3 -i 19 -a 3 -x {3.0 1.2 3 ------- null}
h -t 0.555 -s 3 -d 4 -p cbr -e 500 -c 3 -i 19 -a 3 -x {3.0 1.2 -1 ------- null}
h -t 0.555 -s 0 -d 4 -p cbr -e 500 -c 0 -i 48 -a 0 -x {0.0 2.2 11 ------- null}
h -t 0.555 -s 1 -d 4 -p cbr -e 500 -c 1 -i 49 -a 1 -x {1.0 3.2 11 ------- null}
h -t 0.555 -s 2 -d 4 -p cbr -e 500 -c 2 -i 50 -a 2 -x {2.0 0.2 11 ------- null}
h -t 0.555 -s 3 -d 4 -p cbr -e 500 -c 3 -i 51 -a 3 -x {3.0 1.2 11 ------- null}
d -t 0.555004 -s 3 -d 4 -p cbr -e 500 -c 0 -i 16 -a 0 -x {0.0 2.2 3 ------- null}
d -t 0.555004 -s 1 -d 4 -p cbr -e 500 -c 0 -i 16 -a 0 -x {0.0 2.2 3 ------- null}
d -t 0.555004 -s 2 -d 4 -p cbr -e 500 -c 1 -i 17 -a 1 -x {1.0 3.2 3 ------- null}
d -t 0.555004 -s 0 -d 4 -p cbr -e 500 -c 1 -i 17 -a 1 -x {1.0 3.2 3 ------- null}
d -t 0.555004 -s 3 -d 4 -p cbr -e 500 -c 2 -i 18 -a 2 -x {2.0 0.2 3 ------- null}
d -t 0.555004 -s 1 -d 4 -p cbr -e 500 -c 2 -i 18 -a 2 -x {2.0 0.2 3 ------- null}
d -t 0.555004 -s 2 -d 4 -p cbr -e 500 -c 3 -i 19 -a 3 -x {3.0 1.2 3 ------- null}
d -t 0.555004 -s 0 -d 4 -p cbr -e 500 -c 3 -i 19 -a 3 -x {3.0 1.2 3 ------- null}
+ -t 0.56 -s 0 -d 4 -p cbr -e 500 -c 0 -i 20 -a 0 -x {0.0 2.2 4 ------- null}
- -t 0.56 -s 0 -d 4 -p cbr -e 500 -c 0 -i 20 -a 0 -x {0.0 2.2 4 ------- null}
h -t 0.56 -s 0 -d 4 -p cbr -e 500 -c 0 -i 20 -a 0 -x {0.0 2.2 -1 ------- null}
+ -t 0.56 -s 1 -d 4 -p cbr -e 500 -c 1 -i 21 -a 1 -x {1.0 3.2 4 ------- null}
- -t 0.56 -s 1 -d 4 -p cbr -e 500 -c 1 -i 21 -a 1 -x {1.0 3.2 4 ------- null}
h -t 0.56 -s 1 -d 4 -p cbr -e 500 -c 1 -i 21 -a 1 -x {1.0 3.2 -1 ------- null}
+ -t 0.56 -s 2 -d 4 -p cbr -e 500 -c 2 -i 22 -a 2 -x {2.0 0.2 4 ------- null}
- -t 0.56 -s 2 -d 4 -p cbr -e 500 -c 2 -i 22 -a 2 -x {2.0 0.2 4 ------- null}
h -t 0.56 -s 2 -d 4 -p cbr -e 500 -c 2 -i 22 -a 2 -x {2.0 0.2 -1 ------- null}
+ -t 0.56 -s 3 -d 4 -p cbr -e 500 -c 3 -i 23 -a 3 -x {3.0 1.2 4 ------- null}
- -t 0.56 -s 3 -d 4 -p cbr -e 500 -c 3 -i 23 -a 3 -x {3.0 1.2 4 ------- null}
h -t 0.56 -s 3 -d 4 -p cbr -e 500 -c 3 -i 23 -a 3 -x {3.0 1.2 -1 ------- null}
h -t 0.56 -s 0 -d 4 -p cbr -e 500 -c 0 -i 52 -a 0 -x {0.0 2.2 12 ------- null}
h -t 0.56 -s 1 -d 4 -p cbr -e 500 -c 1 -i 53 -a 1 -x {1.0 3.2 12 ------- null}
h -t 0.56 -s 2 -d 4 -p cbr -e 500 -c 2 -i 54 -a 2 -x {2.0 0.2 12 ------- null}
h -t 0.56 -s 3 -d 4 -p cbr -e 500 -c 3 -i 55 -a 3 -x {3.0 1.2 12 ------- null}
d -t 0.560004 -s 3 -d 4 -p cbr -e 500 -c 0 -i 20 -a 0 -x {0.0 2.2 4 ------- null}
d -t 0.560004 -s 1 -d 4 -p cbr -e 500 -c 0 -i 20 -a 0 -x {0.0 2.2 4 ------- null}
d -t 0.560004 -s 2 -d 4 -p cbr -e 500 -c 1 -i 21 -a 1 -x {1.0 3.2 4 ------- null}
d -t 0.560004 -s 0 -d 4 -p cbr -e 500 -c 1 -i 21 -a 1 -x {1.0 3.2 4 ------- null}
d -t 0.560004 -s 3 -d 4 -p cbr -e 500 -c 2 -i 22 -a 2 -x {2.0 0.2 4 ------- null}
d -t 0.560004 -s 1 -d 4 -p cbr -e 500 -c 2 -i 22 -a 2 -x {2.0 0.2 4 ------- null}
d -t 0.560004 -s 2 -d 4 -p cbr -e 500 -c 3 -i 23 -a 3 -x {3.0 1.2 4 ------- null}
d -t 0.560004 -s 0 -d 4 -p cbr -e 500 -c 3 -i 23 -a 3 -x {3.0 1.2 4 ------- null}
+ -t 0.565 -s 0 -d 4 -p cbr -e 500 -c 0 -i 24 -a 0 -x {0.0 2.2 5 ------- null}
- -t 0.565 -s 0 -d 4 -p cbr -e 500 -c 0 -i 24 -a 0 -x {0.0 2.2 5 ------- null}
h -t 0.565 -s 0 -d 4 -p cbr -e 500 -c 0 -i 24 -a 0 -x {0.0 2.2 -1 ------- null}
+ -t 0.565 -s 1 -d 4 -p cbr -e 500 -c 1 -i 25 -a 1 -x {1.0 3.2 5 ------- null}
- -t 0.565 -s 1 -d 4 -p cbr -e 500 -c 1 -i 25 -a 1 -x {1.0 3.2 5 ------- null}
h -t 0.565 -s 1 -d 4 -p cbr -e 500 -c 1 -i 25 -a 1 -x {1.0 3.2 -1 ------- null}
+ -t 0.565 -s 2 -d 4 -p cbr -e 500 -c 2 -i 26 -a 2 -x {2.0 0.2 5 ------- null}
- -t 0.565 -s 2 -d 4 -p cbr -e 500 -c 2 -i 26 -a 2 -x {2.0 0.2 5 ------- null}
h -t 0.565 -s 2 -d 4 -p cbr -e 500 -c 2 -i 26 -a 2 -x {2.0 0.2 -1 ------- null}
+ -t 0.565 -s 3 -d 4 -p cbr -e 500 -c 3 -i 27 -a 3 -x {3.0 1.2 5 ------- null}
- -t 0.565 -s 3 -d 4 -p cbr -e 500 -c 3 -i 27 -a 3 -x {3.0 1.2 5 ------- null}
h -t 0.565 -s 3 -d 4 -p cbr -e 500 -c 3 -i 27 -a 3 -x {3.0 1.2 -1 ------- null}
h -t 0.565 -s 0 -d 4 -p cbr -e 500 -c 0 -i 56 -a 0 -x {0.0 2.2 13 ------- null}
h -t 0.565 -s 1 -d 4 -p cbr -e 500 -c 1 -i 57 -a 1 -x {1.0 3.2 13 ------- null}
h -t 0.565 -s 2 -d 4 -p cbr -e 500 -c 2 -i 58 -a 2 -x {2.0 0.2 13 ------- null}
h -t 0.565 -s 3 -d 4 -p cbr -e 500 -c 3 -i 59 -a 3 -x {3.0 1.2 13 ------- null}
d -t 0.565004 -s 3 -d 4 -p cbr -e 500 -c 0 -i 24 -a 0 -x {0.0 2.2 5 ------- null}
d -t 0.565004 -s 1 -d 4 -p cbr -e 500 -c 0 -i 24 -a 0 -x {0.0 2.2 5 ------- null}
d -t 0.565004 -s 2 -d 4 -p cbr -e 500 -c 1 -i 25 -a 1 -x {1.0 3.2 5 ------- null}
d -t 0.565004 -s 0 -d 4 -p cbr -e 500 -c 1 -i 25 -a 1 -x {1.0 3.2 5 ------- null}
d -t 0.565004 -s 3 -d 4 -p cbr -e 500 -c 2 -i 26 -a 2 -x {2.0 0.2 5 ------- null}
d -t 0.565004 -s 1 -d 4 -p cbr -e 500 -c 2 -i 26 -a 2 -x {2.0 0.2 5 ------- null}
d -t 0.565004 -s 2 -d 4 -p cbr -e 500 -c 3 -i 27 -a 3 -x {3.0 1.2 5 ------- null}
d -t 0.565004 -s 0 -d 4 -p cbr -e 500 -c 3 -i 27 -a 3 -x {3.0 1.2 5 ------- null}
+ -t 0.57 -s 0 -d 4 -p cbr -e 500 -c 0 -i 28 -a 0 -x {0.0 2.2 6 ------- null}
- -t 0.57 -s 0 -d 4 -p cbr -e 500 -c 0 -i 28 -a 0 -x {0.0 2.2 6 ------- null}
h -t 0.57 -s 0 -d 4 -p cbr -e 500 -c 0 -i 28 -a 0 -x {0.0 2.2 -1 ------- null}
+ -t 0.57 -s 1 -d 4 -p cbr -e 500 -c 1 -i 29 -a 1 -x {1.0 3.2 6 ------- null}
- -t 0.57 -s 1 -d 4 -p cbr -e 500 -c 1 -i 29 -a 1 -x {1.0 3.2 6 ------- null}
h -t 0.57 -s 1 -d 4 -p cbr -e 500 -c 1 -i 29 -a 1 -x {1.0 3.2 -1 ------- null}
+ -t 0.57 -s 2 -d 4 -p cbr -e 500 -c 2 -i 30 -a 2 -x {2.0 0.2 6 ------- null}
- -t 0.57 -s 2 -d 4 -p cbr -e 500 -c 2 -i 30 -a 2 -x {2.0 0.2 6 ------- null}
h -t 0.57 -s 2 -d 4 -p cbr -e 500 -c 2 -i 30 -a 2 -x {2.0 0.2 -1 ------- null}
+ -t 0.57 -s 3 -d 4 -p cbr -e 500 -c 3 -i 31 -a 3 -x {3.0 1.2 6 ------- null}
- -t 0.57 -s 3 -d 4 -p cbr -e 500 -c 3 -i 31 -a 3 -x {3.0 1.2 6 ------- null}
h -t 0.57 -s 3 -d 4 -p cbr -e 500 -c 3 -i 31 -a 3 -x {3.0 1.2 -1 ------- null}
h -t 0.57 -s 0 -d 4 -p cbr -e 500 -c 0 -i 60 -a 0 -x {0.0 2.2 14 ------- null}
h -t 0.57 -s 1 -d 4 -p cbr -e 500 -c 1 -i 61 -a 1 -x {1.0 3.2 14 ------- null}
h -t 0.57 -s 2 -d 4 -p cbr -e 500 -c 2 -i 62 -a 2 -x {2.0 0.2 14 ------- null}
h -t 0.57 -s 3 -d 4 -p cbr -e 500 -c 3 -i 63 -a 3 -x {3.0 1.2 14 ------- null}
d -t 0.570004 -s 3 -d 4 -p cbr -e 500 -c 0 -i 28 -a 0 -x {0.0 2.2 6 ------- null}
d -t 0.570004 -s 1 -d 4 -p cbr -e 500 -c 0 -i 28 -a 0 -x {0.0 2.2 6 ------- null}
d -t 0.570004 -s 2 -d 4 -p cbr -e 500 -c 1 -i 29 -a 1 -x {1.0 3.2 6 ------- null}
d -t 0.570004 -s 0 -d 4 -p cbr -e 500 -c 1 -i 29 -a 1 -x {1.0 3.2 6 ------- null}
d -t 0.570004 -s 3 -d 4 -p cbr -e 500 -c 2 -i 30 -a 2 -x {2.0 0.2 6 ------- null}
d -t 0.570004 -s 1 -d 4 -p cbr -e 500 -c 2 -i 30 -a 2 -x {2.0 0.2 6 ------- null}
d -t 0.570004 -s 2 -d 4 -p cbr -e 500 -c 3 -i 31 -a 3 -x {3.0 1.2 6 ------- null}
d -t 0.570004 -s 0 -d 4 -p cbr -e 500 -c 3 -i 31 -a 3 -x {3.0 1.2 6 ------- null}
+ -t 0.575 -s 0 -d 4 -p cbr -e 500 -c 0 -i 32 -a 0 -x {0.0 2.2 7 ------- null}
- -t 0.575 -s 0 -d 4 -p cbr -e 500 -c 0 -i 32 -a 0 -x {0.0 2.2 7 ------- null}
h -t 0.575 -s 0 -d 4 -p cbr -e 500 -c 0 -i 32 -a 0 -x {0.0 2.2 -1 ------- null}
+ -t 0.575 -s 1 -d 4 -p cbr -e 500 -c 1 -i 33 -a 1 -x {1.0 3.2 7 ------- null}
- -t 0.575 -s 1 -d 4 -p cbr -e 500 -c 1 -i 33 -a 1 -x {1.0 3.2 7 ------- null}
h -t 0.575 -s 1 -d 4 -p cbr -e 500 -c 1 -i 33 -a 1 -x {1.0 3.2 -1 ------- null}
+ -t 0.575 -s 2 -d 4 -p cbr -e 500 -c 2 -i 34 -a 2 -x {2.0 0.2 7 ------- null}
- -t 0.575 -s 2 -d 4 -p cbr -e 500 -c 2 -i 34 -a 2 -x {2.0 0.2 7 ------- null}
h -t 0.575 -s 2 -d 4 -p cbr -e 500 -c 2 -i 34 -a 2 -x {2.0 0.2 -1 ------- null}
+ -t 0.575 -s 3 -d 4 -p cbr -e 500 -c 3 -i 35 -a 3 -x {3.0 1.2 7 ------- null}
- -t 0.575 -s 3 -d 4 -p cbr -e 500 -c 3 -i 35 -a 3 -x {3.0 1.2 7 ------- null}
h -t 0.575 -s 3 -d 4 -p cbr -e 500 -c 3 -i 35 -a 3 -x {3.0 1.2 -1 ------- null}
h -t 0.575 -s 0 -d 4 -p cbr -e 500 -c 0 -i 64 -a 0 -x {0.0 2.2 15 ------- null}
h -t 0.575 -s 1 -d 4 -p cbr -e 500 -c 1 -i 65 -a 1 -x {1.0 3.2 15 ------- null}
h -t 0.575 -s 2 -d 4 -p cbr -e 500 -c 2 -i 66 -a 2 -x {2.0 0.2 15 ------- null}
h -t 0.575 -s 3 -d 4 -p cbr -e 500 -c 3 -i 67 -a 3 -x {3.0 1.2 15 ------- null}
d -t 0.575004 -s 3 -d 4 -p cbr -e 500 -c 0 -i 32 -a 0 -x {0.0 2.2 7 ------- null}
d -t 0.575004 -s 1 -d 4 -p cbr -e 500 -c 0 -i 32 -a 0 -x {0.0 2.2 7 ------- null}
d -t 0.575004 -s 2 -d 4 -p cbr -e 500 -c 1 -i 33 -a 1 -x {1.0 3.2 7 ------- null}
d -t 0.575004 -s 0 -d 4 -p cbr -e 500 -c 1 -i 33 -a 1 -x {1.0 3.2 7 ------- null}
d -t 0.575004 -s 3 -d 4 -p cbr -e 500 -c 2 -i 34 -a 2 -x {2.0 0.2 7 ------- null}
d -t 0.575004 -s 1 -d 4 -p cbr -e 500 -c 2 -i 34 -a 2 -x {2.0 0.2 7 ------- null}
d -t 0.575004 -s 2 -d 4 -p cbr -e 500 -c 3 -i 35 -a 3 -x {3.0 1.2 7 ------- null}
d -t 0.575004 -s 0 -d 4 -p cbr -e 500 -c 3 -i 35 -a 3 -x {3.0 1.2 7 ------- null}
+ -t 0.58 -s 0 -d 4 -p cbr -e 500 -c 0 -i 36 -a 0 -x {0.0 2.2 8 ------- null}
- -t 0.58 -s 0 -d 4 -p cbr -e 500 -c 0 -i 36 -a 0 -x {0.0 2.2 8 ------- null}
h -t 0.58 -s 0 -d 4 -p cbr -e 500 -c 0 -i 36 -a 0 -x {0.0 2.2 -1 ------- null}
+ -t 0.58 -s 1 -d 4 -p cbr -e 500 -c 1 -i 37 -a 1 -x {1.0 3.2 8 ------- null}
- -t 0.58 -s 1 -d 4 -p cbr -e 500 -c 1 -i 37 -a 1 -x {1.0 3.2 8 ------- null}
h -t 0.58 -s 1 -d 4 -p cbr -e 500 -c 1 -i 37 -a 1 -x {1.0 3.2 -1 ------- null}
+ -t 0.58 -s 2 -d 4 -p cbr -e 500 -c 2 -i 38 -a 2 -x {2.0 0.2 8 ------- null}
- -t 0.58 -s 2 -d 4 -p cbr -e 500 -c 2 -i 38 -a 2 -x {2.0 0.2 8 ------- null}
h -t 0.58 -s 2 -d 4 -p cbr -e 500 -c 2 -i 38 -a 2 -x {2.0 0.2 -1 ------- null}
+ -t 0.58 -s 3 -d 4 -p cbr -e 500 -c 3 -i 39 -a 3 -x {3.0 1.2 8 ------- null}
- -t 0.58 -s 3 -d 4 -p cbr -e 500 -c 3 -i 39 -a 3 -x {3.0 1.2 8 ------- null}
h -t 0.58 -s 3 -d 4 -p cbr -e 500 -c 3 -i 39 -a 3 -x {3.0 1.2 -1 ------- null}
h -t 0.58 -s 0 -d 4 -p cbr -e 500 -c 0 -i 68 -a 0 -x {0.0 2.2 16 ------- null}
h -t 0.58 -s 1 -d 4 -p cbr -e 500 -c 1 -i 69 -a 1 -x {1.0 3.2 16 ------- null}
h -t 0.58 -s 2 -d 4 -p cbr -e 500 -c 2 -i 70 -a 2 -x {2.0 0.2 16 ------- null}
h -t 0.58 -s 3 -d 4 -p cbr -e 500 -c 3 -i 71 -a 3 -x {3.0 1.2 16 ------- null}
r -t 0.580004 -s 4 -d 1 -p tcp -e 40 -c 0 -i 0 -a 0 -x {0.1 1.3 0 ------- null}
h -t 0.580004 -s 1 -d 4 -p ack -e 40 -c 0 -i 72 -a 0 -x {1.3 0.1 0 ------- null}
r -t 0.580004 -s 4 -d 2 -p tcp -e 40 -c 1 -i 2 -a 1 -x {1.1 2.3 0 ------- null}
h -t 0.580004 -s 2 -d 4 -p ack -e 40 -c 1 -i 73 -a 1 -x {2.3 1.1 0 ------- null}
r -t 0.580004 -s 4 -d 3 -p tcp -e 40 -c 2 -i 4 -a 2 -x {2.1 3.3 0 ------- null}
h -t 0.580004 -s 3 -d 4 -p ack -e 40 -c 2 -i 74 -a 2 -x {3.3 2.1 0 ------- null}
r -t 0.580004 -s 4 -d 0 -p tcp -e 40 -c 3 -i 6 -a 3 -x {3.1 0.3 0 ------- null}
h -t 0.580004 -s 0 -d 4 -p ack -e 40 -c 3 -i 75 -a 3 -x {0.3 3.1 0 ------- null}
d -t 0.580004 -s 3 -d 4 -p cbr -e 500 -c 0 -i 36 -a 0 -x {0.0 2.2 8 ------- null}
d -t 0.580004 -s 1 -d 4 -p cbr -e 500 -c 0 -i 36 -a 0 -x {0.0 2.2 8 ------- null}
d -t 0.580004 -s 2 -d 4 -p cbr -e 500 -c 1 -i 37 -a 1 -x {1.0 3.2 8 ------- null}
d -t 0.580004 -s 0 -d 4 -p cbr -e 500 -c 1 -i 37 -a 1 -x {1.0 3.2 8 ------- null}
d -t 0.580004 -s 3 -d 4 -p cbr -e 500 -c 2 -i 38 -a 2 -x {2.0 0.2 8 ------- null}
d -t 0.580004 -s 1 -d 4 -p cbr -e 500 -c 2 -i 38 -a 2 -x {2.0 0.2 8 ------- null}
d -t 0.580004 -s 2 -d 4 -p cbr -e 500 -c 3 -i 39 -a 3 -x {3.0 1.2 8 ------- null}
d -t 0.580004 -s 0 -d 4 -p cbr -e 500 -c 3 -i 39 -a 3 -x {3.0 1.2 8 ------- null}
r -t 0.58042 -s 4 -d 2 -p cbr -e 500 -c 0 -i 1 -a 0 -x {0.0 2.2 0 ------- null}
r -t 0.58042 -s 4 -d 3 -p cbr -e 500 -c 1 -i 3 -a 1 -x {1.0 3.2 0 ------- null}
r -t 0.58042 -s 4 -d 0 -p cbr -e 500 -c 2 -i 5 -a 2 -x {2.0 0.2 0 ------- null}
r -t 0.58042 -s 4 -d 1 -p cbr -e 500 -c 3 -i 7 -a 3 -x {3.0 1.2 0 ------- null}
+ -t 0.585 -s 0 -d 4 -p cbr -e 500 -c 0 -i 40 -a 0 -x {0.0 2.2 9 ------- null}
- -t 0.585 -s 0 -d 4 -p cbr -e 500 -c 0 -i 40 -a 0 -x {0.0 2.2 9 ------- null}
h -t 0.585 -s 0 -d 4 -p cbr -e 500 -c 0 -i 40 -a 0 -x {0.0 2.2 -1 ------- null}
+ -t 0.585 -s 1 -d 4 -p cbr -e 500 -c 1 -i 41 -a 1 -x {1.0 3.2 9 ------- null}
- -t 0.585 -s 1 -d 4 -p cbr -e 500 -c 1 -i 41 -a 1 -x {1.0 3.2 9 ------- null}
h -t 0.585 -s 1 -d 4 -p cbr -e 500 -c 1 -i 41 -a 1 -x {1.0 3.2 -1 ------- null}
+ -t 0.585 -s 2 -d 4 -p cbr -e 500 -c 2 -i 42 -a 2 -x {2.0 0.2 9 ------- null}
- -t 0.585 -s 2 -d 4 -p cbr -e 500 -c 2 -i 42 -a 2 -x {2.0 0.2 9 ------- null}
h -t 0.585 -s 2 -d 4 -p cbr -e 500 -c 2 -i 42 -a 2 -x {2.0 0.2 -1 ------- null}
+ -t 0.585 -s 3 -d 4 -p cbr -e 500 -c 3 -i 43 -a 3 -x {3.0 1.2 9 ------- null}
- -t 0.585 -s 3 -d 4 -p cbr -e 500 -c 3 -i 43 -a 3 -x {3.0 1.2 9 ------- null}
h -t 0.585 -s 3 -d 4 -p cbr -e 500 -c 3 -i 43 -a 3 -x {3.0 1.2 -1 ------- null}
h -t 0.585 -s 0 -d 4 -p cbr -e 500 -c 0 -i 76 -a 0 -x {0.0 2.2 17 ------- null}
h -t 0.585 -s 1 -d 4 -p cbr -e 500 -c 1 -i 77 -a 1 -x {1.0 3.2 17 ------- null}
h -t 0.585 -s 2 -d 4 -p cbr -e 500 -c 2 -i 78 -a 2 -x {2.0 0.2 17 ------- null}
h -t 0.585 -s 3 -d 4 -p cbr -e 500 -c 3 -i 79 -a 3 -x {3.0 1.2 17 ------- null}
r -t 0.585004 -s 4 -d 2 -p cbr -e 500 -c 0 -i 8 -a 0 -x {0.0 2.2 1 ------- null}
r -t 0.585004 -s 4 -d 3 -p cbr -e 500 -c 1 -i 9 -a 1 -x {1.0 3.2 1 ------- null}
r -t 0.585004 -s 4 -d 0 -p cbr -e 500 -c 2 -i 10 -a 2 -x {2.0 0.2 1 ------- null}
r -t 0.585004 -s 4 -d 1 -p cbr -e 500 -c 3 -i 11 -a 3 -x {3.0 1.2 1 ------- null}
d -t 0.585004 -s 3 -d 4 -p cbr -e 500 -c 0 -i 40 -a 0 -x {0.0 2.2 9 ------- null}
d -t 0.585004 -s 1 -d 4 -p cbr -e 500 -c 0 -i 40 -a 0 -x {0.0 2.2 9 ------- null}
d -t 0.585004 -s 2 -d 4 -p cbr -e 500 -c 1 -i 41 -a 1 -x {1.0 3.2 9 ------- null}
d -t 0.585004 -s 0 -d 4 -p cbr -e 500 -c 1 -i 41 -a 1 -x {1.0 3.2 9 ------- null}
d -t 0.585004 -s 3 -d 4 -p cbr -e 500 -c 2 -i 42 -a 2 -x {2.0 0.2 9 ------- null}
d -t 0.585004 -s 1 -d 4 -p cbr -e 500 -c 2 -i 42 -a 2 -x {2.0 0.2 9 ------- null}
d -t 0.585004 -s 2 -d 4 -p cbr -e 500 -c 3 -i 43 -a 3 -x {3.0 1.2 9 ------- null}
d -t 0.585004 -s 0 -d 4 -p cbr -e 500 -c 3 -i 43 -a 3 -x {3.0 1.2 9 ------- null}
+ -t 0.59 -s 0 -d 4 -p cbr -e 500 -c 0 -i 44 -a 0 -x {0.0 2.2 10 ------- null}
- -t 0.59 -s 0 -d 4 -p cbr -e 500 -c 0 -i 44 -a 0 -x {0.0 2.2 10 ------- null}
h -t 0.59 -s 0 -d 4 -p cbr -e 500 -c 0 -i 44 -a 0 -x {0.0 2.2 -1 ------- null}
+ -t 0.59 -s 1 -d 4 -p cbr -e 500 -c 1 -i 45 -a 1 -x {1.0 3.2 10 ------- null}
- -t 0.59 -s 1 -d 4 -p cbr -e 500 -c 1 -i 45 -a 1 -x {1.0 3.2 10 ------- null}
h -t 0.59 -s 1 -d 4 -p cbr -e 500 -c 1 -i 45 -a 1 -x {1.0 3.2 -1 ------- null}
+ -t 0.59 -s 2 -d 4 -p cbr -e 500 -c 2 -i 46 -a 2 -x {2.0 0.2 10 ------- null}
- -t 0.59 -s 2 -d 4 -p cbr -e 500 -c 2 -i 46 -a 2 -x {2.0 0.2 10 ------- null}
h -t 0.59 -s 2 -d 4 -p cbr -e 500 -c 2 -i 46 -a 2 -x {2.0 0.2 -1 ------- null}
+ -t 0.59 -s 3 -d 4 -p cbr -e 500 -c 3 -i 47 -a 3 -x {3.0 1.2 10 ------- null}
- -t 0.59 -s 3 -d 4 -p cbr -e 500 -c 3 -i 47 -a 3 -x {3.0 1.2 10 ------- null}
h -t 0.59 -s 3 -d 4 -p cbr -e 500 -c 3 -i 47 -a 3 -x {3.0 1.2 -1 ------- null}
h -t 0.59 -s 0 -d 4 -p cbr -e 500 -c 0 -i 80 -a 0 -x {0.0 2.2 18 ------- null}
h -t 0.59 -s 1 -d 4 -p cbr -e 500 -c 1 -i 81 -a 1 -x {1.0 3.2 18 ------- null}
h -t 0.59 -s 2 -d 4 -p cbr -e 500 -c 2 -i 82 -a 2 -x {2.0 0.2 18 ------- null}
h -t 0.59 -s 3 -d 4 -p cbr -e 500 -c 3 -i 83 -a 3 -x {3.0 1.2 18 ------- null}
r -t 0.590004 -s 4 -d 2 -p cbr -e 500 -c 0 -i 12 -a 0 -x {0.0 2.2 2 ------- null}
r -t 0.590004 -s 4 -d 3 -p cbr -e 500 -c 1 -i 13 -a 1 -x {1.0 3.2 2 ------- null}
r -t 0.590004 -s 4 -d 0 -p cbr -e 500 -c 2 -i 14 -a 2 -x {2.0 0.2 2 ------- null}
r -t 0.590004 -s 4 -d 1 -p cbr -e 500 -c 3 -i 15 -a 3 -x {3.0 1.2 2 ------- null}
d -t 0.590004 -s 3 -d 4 -p cbr -e 500 -c 0 -i 44 -a 0 -x {0.0 2.2 10 ------- null}
d -t 0.590004 -s 1 -d 4 -p cbr -e 500 -c 0 -i 44 -a 0 -x {0.0 2.2 10 ------- null}
d -t 0.590004 -s 2 -d 4 -p cbr -e 500 -c 1 -i 45 -a 1 -x {1.0 3.2 10 ------- null}
d -t 0.590004 -s 0 -d 4 -p cbr -e 500 -c 1 -i 45 -a 1 -x {1.0 3.2 10 ------- null}
d -t 0.590004 -s 3 -d 4 -p cbr -e 500 -c 2 -i 46 -a 2 -x {2.0 0.2 10 ------- null}
d -t 0.590004 -s 1 -d 4 -p cbr -e 500 -c 2 -i 46 -a 2 -x {2.0 0.2 10 ------- null}
d -t 0.590004 -s 2 -d 4 -p cbr -e 500 -c 3 -i 47 -a 3 -x {3.0 1.2 10 ------- null}
d -t 0.590004 -s 0 -d 4 -p cbr -e 500 -c 3 -i 47 -a 3 -x {3.0 1.2 10 ------- null}
+ -t 0.595 -s 0 -d 4 -p cbr -e 500 -c 0 -i 48 -a 0 -x {0.0 2.2 11 ------- null}
- -t 0.595 -s 0 -d 4 -p cbr -e 500 -c 0 -i 48 -a 0 -x {0.0 2.2 11 ------- null}
h -t 0.595 -s 0 -d 4 -p cbr -e 500 -c 0 -i 48 -a 0 -x {0.0 2.2 -1 ------- null}
+ -t 0.595 -s 1 -d 4 -p cbr -e 500 -c 1 -i 49 -a 1 -x {1.0 3.2 11 ------- null}
- -t 0.595 -s 1 -d 4 -p cbr -e 500 -c 1 -i 49 -a 1 -x {1.0 3.2 11 ------- null}
h -t 0.595 -s 1 -d 4 -p cbr -e 500 -c 1 -i 49 -a 1 -x {1.0 3.2 -1 ------- null}
+ -t 0.595 -s 2 -d 4 -p cbr -e 500 -c 2 -i 50 -a 2 -x {2.0 0.2 11 ------- null}
- -t 0.595 -s 2 -d 4 -p cbr -e 500 -c 2 -i 50 -a 2 -x {2.0 0.2 11 ------- null}
h -t 0.595 -s 2 -d 4 -p cbr -e 500 -c 2 -i 50 -a 2 -x {2.0 0.2 -1 ------- null}
+ -t 0.595 -s 3 -d 4 -p cbr -e 500 -c 3 -i 51 -a 3 -x {3.0 1.2 11 ------- null}
- -t 0.595 -s 3 -d 4 -p cbr -e 500 -c 3 -i 51 -a 3 -x {3.0 1.2 11 ------- null}
h -t 0.595 -s 3 -d 4 -p cbr -e 500 -c 3 -i 51 -a 3 -x {3.0 1.2 -1 ------- null}
h -t 0.595 -s 0 -d 4 -p cbr -e 500 -c 0 -i 84 -a 0 -x {0.0 2.2 19 ------- null}
h -t 0.595 -s 1 -d 4 -p cbr -e 500 -c 1 -i 85 -a 1 -x {1.0 3.2 19 ------- null}
h -t 0.595 -s 2 -d 4 -p cbr -e 500 -c 2 -i 86 -a 2 -x {2.0 0.2 19 ------- null}
h -t 0.595 -s 3 -d 4 -p cbr -e 500 -c 3 -i 87 -a 3 -x {3.0 1.2 19 ------- null}
r -t 0.595004 -s 4 -d 2 -p cbr -e 500 -c 0 -i 16 -a 0 -x {0.0 2.2 3 ------- null}
r -t 0.595004 -s 4 -d 3 -p cbr -e 500 -c 1 -i 17 -a 1 -x {1.0 3.2 3 ------- null}
r -t 0.595004 -s 4 -d 0 -p cbr -e 500 -c 2 -i 18 -a 2 -x {2.0 0.2 3 ------- null}
r -t 0.595004 -s 4 -d 1 -p cbr -e 500 -c 3 -i 19 -a 3 -x {3.0 1.2 3 ------- null}
d -t 0.595004 -s 3 -d 4 -p cbr -e 500 -c 0 -i 48 -a 0 -x {0.0 2.2 11 ------- null}
d -t 0.595004 -s 1 -d 4 -p cbr -e 500 -c 0 -i 48 -a 0 -x {0.0 2.2 11 ------- null}
d -t 0.595004 -s 2 -d 4 -p cbr -e 500 -c 1 -i 49 -a 1 -x {1.0 3.2 11 ------- null}
d -t 0.595004 -s 0 -d 4 -p cbr -e 500 -c 1 -i 49 -a 1 -x {1.0 3.2 11 ------- null}
d -t 0.595004 -s 3 -d 4 -p cbr -e 500 -c 2 -i 50 -a 2 -x {2.0 0.2 11 ------- null}
d -t 0.595004 -s 1 -d 4 -p cbr -e 500 -c 2 -i 50 -a 2 -x {2.0 0.2 11 ------- null}
d -t 0.595004 -s 2 -d 4 -p cbr -e 500 -c 3 -i 51 -a 3 -x {3.0 1.2 11 ------- null}