h 0.5 0 4 tcp 40 ------- 0 0.1 1.3 0 0
h 0.5 0 4 cbr 500 ------- 0 0.0 2.2 0 1
h 0.5 1 4 tcp 40 ------- 1 1.1 2.3 0 2
h 0.5 1 4 cbr 500 ------- 1 1.0 3.2 0 3
h 0.5 2 4 tcp 40 ------- 2 2.1 3.3 0 4
h 0.5 2 4 cbr 500 ------- 2 2.0 0.2 0 5
h 0.5 3 4 tcp 40 ------- 3 3.1 0.3 0 6
h 0.5 3 4 cbr 500 ------- 3 3.0 1.2 0 7
h 0.505 0 4 cbr 500 ------- 0 0.0 2.2 1 8
h 0.505 1 4 cbr 500 ------- 1 1.0 3.2 1 9
h 0.505 2 4 cbr 500 ------- 2 2.0 0.2 1 10
h 0.505 3 4 cbr 500 ------- 3 3.0 1.2 1 11
h 0.51 0 4 cbr 500 ------- 0 0.0 2.2 2 12
h 0.51 1 4 cbr 500 ------- 1 1.0 3.2 2 13
h 0.51 2 4 cbr 500 ------- 2 2.0 0.2 2 14
h 0.51 3 4 cbr 500 ------- 3 3.0 1.2 2 15
h 0.515 0 4 cbr 500 ------- 0 0.0 2.2 3 16
h 0.515 1 4 cbr 500 ------- 1 1.0 3.2 3 17
h 0.515 2 4 cbr 500 ------- 2 2.0 0.2 3 18
h 0.515 3 4 cbr 500 ------- 3 3.0 1.2 3 19
h 0.52 0 4 cbr 500 ------- 0 0.0 2.2 4 20
h 0.52 1 4 cbr 500 ------- 1 1.0 3.2 4 21
h 0.52 2 4 cbr 500 ------- 2 2.0 0.2 4 22
h 0.52 3 4 cbr 500 ------- 3 3.0 1.2 4 23
h 0.525 0 4 cbr 500 ------- 0 0.0 2.2 5 24
h 0.525 1 4 cbr 500 ------- 1 1.0 3.2 5 25
h 0.525 2 4 cbr 500 ------- 2 2.0 0.2 5 26
h 0.525 3 4 cbr 500 ------- 3 3.0 1.2 5 27
h 0.53 0 4 cbr 500 ------- 0 0.0 2.2 6 28
h 0.53 1 4 cbr 500 ------- 1 1.0 3.2 6 29
h 0.53 2 4 cbr 500 ------- 2 2.0 0.2 6 30
h 0.53 3 4 cbr 500 ------- 3 3.0 1.2 6 31
h 0.535 0 4 cbr 500 ------- 0 0.0 2.2 7 32
h 0.535 1 4 cbr 500 ------- 1 1.0 3.2 7 33
h 0.535 2 4 cbr 500 ------- 2 2.0 0.2 7 34
h 0.535 3 4 cbr 500 ------- 3 3.0 1.2 7 35
+ 0.54 0 4 tcp 40 ------- 0 0.1 1.3 0 0
- 0.54 0 4 tcp 40 ------- 0 0.1 1.3 0 0
+ 0.54 0 4 cbr 500 ------- 0 0.0 2.2 0 1
+ 0.54 1 4 tcp 40 ------- 1 1.1 2.3 0 2
- 0.54 1 4 tcp 40 ------- 1 1.1 2.3 0 2
+ 0.54 1 4 cbr 500 ------- 1 1.0 3.2 0 3
+ 0.54 2 4 tcp 40 ------- 2 2.1 3.3 0 4
- 0.54 2 4 tcp 40 ------- 2 2.1 3.3 0 4
+ 0.54 2 4 cbr 500 ------- 2 2.0 0.2 0 5
+ 0.54 3 4 tcp 40 ------- 3 3.1 0.3 0 6
- 0.54 3 4 tcp 40 ------- 3 3.1 0.3 0 6
+ 0.54 3 4 cbr 500 ------- 3 3.0 1.2 0 7
h 0.54 0 4 cbr 500 ------- 0 0.0 2.2 8 36
h 0.54 1 4 cbr 500 ------- 1 1.0 3.2 8 37
h 0.54 2 4 cbr 500 ------- 2 2.0 0.2 8 38
h 0.54 3 4 cbr 500 ------- 3 3.0 1.2 8 39
d 0.540004 3 4 tcp 40 ------- 0 0.1 1.3 0 0
d 0.540004 2 4 tcp 40 ------- 0 0.1 1.3 0 0
d 0.540004 3 4 tcp 40 ------- 1 1.1 2.3 0 2
d 0.540004 0 4 tcp 40 ------- 1 1.1 2.3 0 2
d 0.540004 1 4 tcp 40 ------- 2 2.1 3.3 0 4
d 0.540004 0 4 tcp 40 ------- 2 2.1 3.3 0 4
d 0.540004 2 4 tcp 40 ------- 3 3.1 0.3 0 6
d 0.540004 1 4 tcp 40 ------- 3 3.1 0.3 0 6
- 0.540416 0 4 cbr 500 ------- 0 0.0 2.2 0 1
- 0.540416 1 4 cbr 500 ------- 1 1.0 3.2 0 3
- 0.540416 2 4 cbr 500 ------- 2 2.0 0.2 0 5
- 0.540416 3 4 cbr 500 ------- 3 3.0 1.2 0 7
d 0.54042 3 4 cbr 500 ------- 0 0.0 2.2 0 1
d 0.54042 1 4 cbr 500 ------- 0 0.0 2.2 0 1
d 0.54042 2 4 cbr 500 ------- 1 1.0 3.2 0 3
d 0.54042 0 4 cbr 500 ------- 1 1.0 3.2 0 3
d 0.54042 3 4 cbr 500 ------- 2 2.0 0.2 0 5
d 0.54042 1 4 cbr 500 ------- 2 2.0 0.2 0 5
d 0.54042 2 4 cbr 500 ------- 3 3.0 1.2 0 7
d 0.54042 0 4 cbr 500 ------- 3 3.0 1.2 0 7
+ 0.545 0 4 cbr 500 ------- 0 0.0 2.2 1 8
- 0.545 0 4 cbr 500 ------- 0 0.0 2.2 1 8
+ 0.545 1 4 cbr 500 ------- 1 1.0 3.2 1 9
- 0.545 1 4 cbr 500 ------- 1 1.0 3.2 1 9
+ 0.545 2 4 cbr 500 ------- 2 2.0 0.2 1 10
- 0.545 2 4 cbr 500 ------- 2 2.0 0.2 1 10
+ 0.545 3 4 cbr 500 ------- 3 3.0 1.2 1 11
- 0.545 3 4 cbr 500 ------- 3 3.0 1.2 1 11
h 0.545 0 4 cbr 500 ------- 0 0.0 2.2 9 40
h 0.545 1 4 cbr 500 ------- 1 1.0 3.2 9 41
h 0.545 2 4 cbr 500 ------- 2 2.0 0.2 9 42
h 0.545 3 4 cbr 500 ------- 3 3.0 1.2 9 43
d 0.545004 3 4 cbr 500 ------- 0 0.0 2.2 1 8
d 0.545004 1 4 cbr 500 ------- 0 0.0 2.2 1 8
d 0.545004 2 4 cbr 500 ------- 1 1.0 3.2 1 9
d 0.545004 0 4 cbr 500 ------- 1 1.0 3.2 1 9
d 0.545004 3 4 cbr 500 ------- 2 2.0 0.2 1 10
d 0.545004 1 4 cbr 500 ------- 2 2.0 0.2 1 10
d 0.545004 2 4 cbr 500 ------- 3 3.0 1.2 1 11
d 0.545004 0 4 cbr 500 ------- 3 3.0 1.2 1 11
+ 0.55 0 4 cbr 500 ------- 0 0.0 2.2 2 12
- 0.55 0 4 cbr 500 ------- 0 0.0 2.2 2 12
+ 0.55 1 4 cbr 500 ------- 1 1.0 3.2 2 13
- 0.55 1 4 cbr 500 ------- 1 1.0 3.2 2 13
+ 0.55 2 4 cbr 500 ------- 2 2.0 0.2 2 14
- 0.55 2 4 cbr 500 ------- 2 2.0 0.2 2 14
+ 0.55 3 4 cbr 500 ------- 3 3.0 1.2 2 15
- 0.55 3 4 cbr 500 ------- 3 3.0 1.2 2 15
h 0.55 0 4 cbr 500 ------- 0 0.0 2.2 10 44
h 0.55 1 4 cbr 500 ------- 1 1.0 3.2 10 45
h 0.55 2 4 cbr 500 ------- 2 2.0 0.2 10 46
h 0.55 3 4 cbr 500 ------- 3 3.0 1.2 10 47
d 0.550004 3 4 cbr 500 ------- 0 0.0 2.2 2 12
d 0.550004 1 4 cbr 500 ------- 0 0.0 2.2 2 12
d 0.550004 2 4 cbr 500 ------- 1 1.0 3.2 2 13
d 0.550004 0 4 cbr 500 ------- 1 1.0 3.2 2 13
d 0.550004 3 4 cbr 500 ------- 2 2.0 0.2 2 14
d 0.550004 1 4 cbr 500 ------- 2 2.0 0.2 2 14
d 0.550004 2 4 cbr 500 ------- 3 3.0 1.2 2 15
d 0.550004 0 4 cbr 500 ------- 3 3.0 1.2 2 15
+ 0.555 0 4 cbr 500 ------- 0 0.0 2.2 3 16
- 0.555 0 4 cbr 500 ------- 0 0.0 2.2 3 16
+ 0.555 1 4 cbr 500 ------- 1 1.0 3.2 3 17
- 0.555 1 4 cbr 500 ------- 1 1.0 3.2 3 17
+ 0.555 2 4 cbr 500 ------- 2 2.0 0.2 3 18
- 0.555 2 4 cbr 500 ------- 2 2.0 0.2 3 18
+ 0.555 3 4 cbr 500 ------- 3 3.0 1.2 3 19
- 0.555 3 4 cbr 500 ------- 3 3.0 1.2 3 19
h 0.555 0 4 cbr 500 ------- 0 0.0 2.2 11 48
h 0.555 1 4 cbr 500 ------- 1 1.0 3.2 11 49
h 0.555 2 4 cbr 500 ------- 2 2.0 0.2 11 50
h 0.555 3 4 cbr 500 ------- 3 3.0 1.2 11 51
d 0.555004 3 4 cbr 500 ------- 0 0.0 2.2 3 16
d 0.555004 1 4 cbr 500 ------- 0 0.0 2.2 3 16
d 0.555004 2 4 cbr 500 ------- 1 1.0 3.2 3 17
d 0.555004 0 4 cbr 500 ------- 1 1.0 3.2 3 17
d 0.555004 3 4 cbr 500 ------- 2 2.0 0.2 3 18
d 0.555004 1 4 cbr 500 ------- 2 2.0 0.2 3 18
d 0.555004 2 4 cbr 500 ------- 3 3.0 1.2 3 19
d 0.555004 0 4 cbr 500 ------- 3 3.0 1.2 3 19
+ 0.56 0 4 cbr 500 ------- 0 0.0 2.2 4 20
- 0.56 0 4 cbr 500 ------- 0 0.0 2.2 4 20
+ 0.56 1 4 cbr 500 ------- 1 1.0 3.2 4 21
- 0.56 1 4 cbr 500 ------- 1 1.0 3.2 4 21
+ 0.56 2 4 cbr 500 ------- 2 2.0 0.2 4 22
- 0.56 2 4 cbr 500 ------- 2 2.0 0.2 4 22
+ 0.56 3 4 cbr 500 ------- 3 3.0 1.2 4 23
- 0.56 3 4 cbr 500 ------- 3 3.0 1.2 4 23
h 0.56 0 4 cbr 500 ------- 0 0.0 2.2 12 52
h 0.56 1 4 cbr 500 ------- 1 1.0 3.2 12 53
h 0.56 2 4 cbr 500 ------- 2 2.0 0.2 12 54
h 0.56 3 4 cbr 500 ------- 3 3.0 1.2 12 55
d 0.560004 3 4 cbr 500 ------- 0 0.0 2.2 4 20
d 0.560004 1 4 cbr 500 ------- 0 0.0 2.2 4 20
d 0.560004 2 4 cbr 500 ------- 1 1.0 3.2 4 21
d 0.560004 0 4 cbr 500 ------- 1 1.0 3.2 4 21
d 0.560004 3 4 cbr 500 ------- 2 2.0 0.2 4 22
d 0.560004 1 4 cbr 500 ------- 2 2.0 0.2 4 22
d 0.560004 2 4 cbr 500 ------- 3 3.0 1.2 4 23
d 0.560004 0 4 cbr 500 ------- 3 3.0 1.2 4 23
+ 0.565 0 4 cbr 500 ------- 0 0.0 2.2 5 24
- 0.565 0 4 cbr 500 ------- 0 0.0 2.2 5 24
+ 0.565 1 4 cbr 500 ------- 1 1.0 3.2 5 25
- 0.565 1 4 cbr 500 ------- 1 1.0 3.2 5 25
+ 0.565 2 4 cbr 500 ------- 2 2.0 0.2 5 26
- 0.565 2 4 cbr 500 ------- 2 2.0 0.2 5 26
+ 0.565 3 4 cbr 500 ------- 3 3.0 1.2 5 27
- 0.565 3 4 cbr 500 ------- 3 3.0 1.2 5 27
h 0.565 0 4 cbr 500 ------- 0 0.0 2.2 13 56
h 0.565 1 4 cbr 500 ------- 1 1.0 3.2 13 57
h 0.565 2 4 cbr 500 ------- 2 2.0 0.2 13 58
h 0.565 3 4 cbr 500 ------- 3 3.0 1.2 13 59
d 0.565004 3 4 cbr 500 ------- 0 0.0 2.2 5 24
d 0.565004 1 4 cbr 500 ------- 0 0.0 2.2 5 24
d 0.565004 2 4 cbr 500 ------- 1 1.0 3.2 5 25
d 0.565004 0 4 cbr 500 ------- 1 1.0 3.2 5 25
d 0.565004 3 4 cbr 500 ------- 2 2.0 0.2 5 26
d 0.565004 1 4 cbr 500 ------- 2 2.0 0.2 5 26
d 0.565004 2 4 cbr 500 ------- 3 3.0 1.2 5 27
d 0.565004 0 4 cbr 500 ------- 3 3.0 1.2 5 27
+ 0.57 0 4 cbr 500 ------- 0 0.0 2.2 6 28
- 0.57 0 4 cbr 500 ------- 0 0.0 2.2 6 28
+ 0.57 1 4 cbr 500 ------- 1 1.0 3.2 6 29
- 0.57 1 4 cbr 500 ------- 1 1.0 3.2 6 29
+ 0.57 2 4 cbr 500 ------- 2 2.0 0.2 6 30
- 0.57 2 4 cbr 500 ------- 2 2.0 0.2 6 30
+ 0.57 3 4 cbr 500 ------- 3 3.0 1.2 6 31
- 0.57 3 4 cbr 500 ------- 3 3.0 1.2 6 31
h 0.57 0 4 cbr 500 ------- 0 0.0 2.2 14 60
h 0.57 1 4 cbr 500 ------- 1 1.0 3.2 14 61
h 0.57 2 4 cbr 500 ------- 2 2.0 0.2 14 62
h 0.57 3 4 cbr 500 ------- 3 3.0 1.2 14 63
d 0.570004 3 4 cbr 500 ------- 0 0.0 2.2 6 28
d 0.570004 1 4 cbr 500 ------- 0 0.0 2.2 6 28
d 0.570004 2 4 cbr 500 ------- 1 1.0 3.2 6 29
d 0.570004 0 4 cbr 500 ------- 1 1.0 3.2 6 29
d 0.570004 3 4 cbr 500 ------- 2 2.0 0.2 6 30
d 0.570004 1 4 cbr 500 ------- 2 2.0 0.2 6 30
d 0.570004 2 4 cbr 500 ------- 3 3.0 1.2 6 31
d 0.570004 0 4 cbr 500 ------- 3 3.0 1.2 6 31
+ 0.575 0 4 cbr 500 ------- 0 0.0 2.2 7 32
- 0.575 0 4 cbr 500 ------- 0 0.0 2.2 7 32
+ 0.575 1 4 cbr 500 ------- 1 1.0 3.2 7 33
- 0.575 1 4 cbr 500 ------- 1 1.0 3.2 7 33
+ 0.575 2 4 cbr 500 ------- 2 2.0 0.2 7 34
- 0.575 2 4 cbr 500 ------- 2 2.0 0.2 7 34
+ 0.575 3 4 cbr 500 ------- 3 3.0 1.2 7 35
- 0.575 3 4 cbr 500 ------- 3 3.0 1.2 7 35
h 0.575 0 4 cbr 500 ------- 0 0.0 2.2 15 64
h 0.575 1 4 cbr 500 ------- 1 1.0 3.2 15 65
h 0.575 2 4 cbr 500 ------- 2 2.0 0.2 15 66
h 0.575 3 4 cbr 500 ------- 3 3.0 1.2 15 67
d 0.575004 3 4 cbr 500 ------- 0 0.0 2.2 7 32
d 0.575004 1 4 cbr 500 ------- 0 0.0 2.2 7 32
d 0.575004 2 4 cbr 500 ------- 1 1.0 3.2 7 33
d 0.575004 0 4 cbr 500 ------- 1 1.0 3.2 7 33
d 0.575004 3 4 cbr 500 ------- 2 2.0 0.2 7 34
d 0.575004 1 4 cbr 500 ------- 2 2.0 0.2 7 34
d 0.575004 2 4 cbr 500 ------- 3 3.0 1.2 7 35
d 0.575004 0 4 cbr 500 ------- 3 3.0 1.2 7 35
+ 0.58 0 4 cbr 500 ------- 0 0.0 2.2 8 36
- 0.58 0 4 cbr 500 ------- 0 0.0 2.2 8 36
+ 0.58 1 4 cbr 500 ------- 1 1.0 3.2 8 37
- 0.58 1 4 cbr 500 ------- 1 1.0 3.2 8 37
+ 0.58 2 4 cbr 500 ------- 2 2.0 0.2 8 38
- 0.58 2 4 cbr 500 ------- 2 2.0 0.2 8 38
+ 0.58 3 4 cbr 500 ------- 3 3.0 1.2 8 39
- 0.58 3 4 cbr 500 ------- 3 3.0 1.2 8 39
h 0.58 0 4 cbr 500 ------- 0 0.0 2.2 16 68
h 0.58 1 4 cbr 500 ------- 1 1.0 3.2 16 69
h 0.58 2 4 cbr 500 ------- 2 2.0 0.2 16 70
h 0.58 3 4 cbr 500 ------- 3 3.0 1.2 16 71
r 0.580004 4 1 tcp 40 ------- 0 0.1 1.3 0 0
h 0.580004 1 4 ack 40 ------- 0 1.3 0.1 0 72
r 0.580004 4 2 tcp 40 ------- 1 1.1 2.3 0 2
h 0.580004 2 4 ack 40 ------- 1 2.3 1.1 0 73
r 0.580004 4 3 tcp 40 ------- 2 2.1 3.3 0 4
h 0.580004 3 4 ack 40 ------- 2 3.3 2.1 0 74
r 0.580004 4 0 tcp 40 ------- 3 3.1 0.3 0 6
h 0.580004 0 4 ack 40 ------- 3 0.3 3.1 0 75
d 0.580004 3 4 cbr 500 ------- 0 0.0 2.2 8 36
d 0.580004 1 4 cbr 500 ------- 0 0.0 2.2 8 36
d 0.580004 2 4 cbr 500 ------- 1 1.0 3.2 8 37
d 0.580004 0 4 cbr 500 ------- 1 1.0 3.2 8 37
d 0.580004 3 4 cbr 500 ------- 2 2.0 0.2 8 38
d 0.580004 1 4 cbr 500 ------- 2 2.0 0.2 8 38
d 0.580004 2 4 cbr 500 ------- 3 3.0 1.2 8 39
d 0.580004 0 4 cbr 500 ------- 3 3.0 1.2 8 39
r 0.58042 4 2 cbr 500 ------- 0 0.0 2.2 0 1
r 0.58042 4 3 cbr 500 ------- 1 1.0 3.2 0 3
r 0.58042 4 0 cbr 500 ------- 2 2.0 0.2 0 5
r 0.58042 4 1 cbr 500 ------- 3 3.0 1.2 0 7
+ 0.585 0 4 cbr 500 ------- 0 0.0 2.2 9 40
- 0.585 0 4 cbr 500 ------- 0 0.0 2.2 9 40
+ 0.585 1 4 cbr 500 ------- 1 1.0 3.2 9 41
- 0.585 1 4 cbr 500 ------- 1 1.0 3.2 9 41
+ 0.585 2 4 cbr 500 ------- 2 2.0 0.2 9 42
- 0.585 2 4 cbr 500 ------- 2 2.0 0.2 9 42
+ 0.585 3 4 cbr 500 ------- 3 3.0 1.2 9 43
- 0.585 3 4 cbr 500 ------- 3 3.0 1.2 9 43
h 0.585 0 4 cbr 500 ------- 0 0.0 2.2 17 76
h 0.585 1 4 cbr 500 ------- 1 1.0 3.2 17 77
h 0.585 2 4 cbr 500 ------- 2 2.0 0.2 17 78
h 0.585 3 4 cbr 500 ------- 3 3.0 1.2 17 79
r 0.585004 4 2 cbr 500 ------- 0 0.0 2.2 1 8
r 0.585004 4 3 cbr 500 ------- 1 1.0 3.2 1 9
r 0.585004 4 0 cbr 500 ------- 2 2.0 0.2 1 10
r 0.585004 4 1 cbr 500 ------- 3 3.0 1.2 1 11
d 0.585004 3 4 cbr 500 ------- 0 0.0 2.2 9 40
d 0.585004 1 4 cbr 500 ------- 0 0.0 2.2 9 40
d 0.585004 2 4 cbr 500 ------- 1 1.0 3.2 9 41
d 0.585004 0 4 cbr 500 ------- 1 1.0 3.2 9 41
d 0.585004 3 4 cbr 500 ------- 2 2.0 0.2 9 42
d 0.585004 1 4 cbr 500 ------- 2 2.0 0.2 9 42
d 0.585004 2 4 cbr 500 ------- 3 3.0 1.2 9 43
d 0.585004 0 4 cbr 500 ------- 3 3.0 1.2 9 43
+ 0.59 0 4 cbr 500 ------- 0 0.0 2.2 10 44
- 0.59 0 4 cbr 500 ------- 0 0.0 2.2 10 44
+ 0.59 1 4 cbr 500 ------- 1 1.0 3.2 10 45
- 0.59 1 4 cbr 500 ------- 1 1.0 3.2 10 45
+ 0.59 2 4 cbr 500 ------- 2 2.0 0.2 10 46
- 0.59 2 4 cbr 500 ------- 2 2.0 0.2 10 46
+ 0.59 3 4 cbr 500 ------- 3 3.0 1.2 10 47
- 0.59 3 4 cbr 500 ------- 3 3.0 1.2 10 47
h 0.59 0 4 cbr 500 ------- 0 0.0 2.2 18 80
h 0.59 1 4 cbr 500 ------- 1 1.0 3.2 18 81
h 0.59 2 4 cbr 500 ------- 2 2.0 0.2 18 82
h 0.59 3 4 cbr 500 ------- 3 3.0 1.2 18 83
r 0.590004 4 2 cbr 500 ------- 0 0.0 2.2 2 12
r 0.590004 4 3 cbr 500 ------- 1 1.0 3.2 2 13
r 0.590004 4 0 cbr 500 ------- 2 2.0 0.2 2 14
r 0.590004 4 1 cbr 500 ------- 3 3.0 1.2 2 15
d 0.590004 3 4 cbr 500 ------- 0 0.0 2.2 10 44
d 0.590004 1 4 cbr 500 ------- 0 0.0 2.2 10 44
d 0.590004 2 4 cbr 500 ------- 1 1.0 3.2 10 45
d 0.590004 0 4 cbr 500 ------- 1 1.0 3.2 10 45
d 0.590004 3 4 cbr 500 ------- 2 2.0 0.2 10 46
d 0.590004 1 4 cbr 500 ------- 2 2.0 0.2 10 46
d 0.590004 2 4 cbr 500 ------- 3 3.0 1.2 10 47
d 0.590004 0 4 cbr 500 ------- 3 3.0 1.2 10 47
+ 0.595 0 4 cbr 500 ------- 0 0.0 2.2 11 48
- 0.595 0 4 cbr 500 ------- 0 0.0 2.2 11 48
+ 0.595 1 4 cbr 500 ------- 1 1.0 3.2 11 49
- 0.595 1 4 cbr 500 ------- 1 1.0 3.2 11 49
+ 0.595 2 4 cbr 500 ------- 2 2.0 0.2 11 50
- 0.595 2 4 cbr 500 ------- 2 2.0 0.2 11 50
+ 0.595 3 4 cbr 500 ------- 3 3.0 1.2 11 51
- 0.595 3 4 cbr 500 ------- 3 3.0 1.2 11 51
h 0.595 0 4 cbr 500 ------- 0 0.0 2.2 19 84
h 0.595 1 4 cbr 500 ------- 1 1.0 3.2 19 85
h 0.595 2 4 cbr 500 ------- 2 2.0 0.2 19 86
h 0.595 3 4 cbr 500 ------- 3 3.0 1.2 19 87
r 0.595004 4 2 cbr 500 ------- 0 0.0 2.2 3 16
r 0.595004 4 3 cbr 500 ------- 1 1.0 3.2 3 17
r 0.595004 4 0 cbr 500 ------- 2 2.0 0.2 3 18
r 0.595004 4 1 cbr 500 ------- 3 3.0 1.2 3 19
d 0.595004 3 4 cbr 500 ------- 0 0.0 2.2 11 48
d 0.595004 1 4 cbr 500 ------- 0 0.0 2.2 11 48
d 0.595004 2 4 cbr 500 ------- 1 1.0 3.2 11 49
d 0.595004 0 4 cbr 500 ------- 1 1.0 3.2 11 49
d 0.595004 3 4 cbr 500 ------- 2 2.0 0.2 11 50
d 0.595004 1 4 cbr 500 ------- 2 2.0 0.2 11 50
d 0.595004 2 4 cbr 500 ------- 3 3.0 1.2 11 51
d 0.595004 0 4 cbr 500 ------- 3 3.0 1.2 11 51
+ 0.6 0 4 cbr 500 ------- 0 0.0 2.2 12 52
- 0.6 0 4 cbr 500 ------- 0 0.0 2.2 12 52
+ 0.6 1 4 cbr 500 ------- 1 1.0 3.2 12 53
- 0.6 1 4 cbr 500 ------- 1 1.0 3.2 12 53
+ 0.6 2 4 cbr 500 ------- 2 2.0 0.2 12 54
- 0.6 2 4 cbr 500 ------- 2 2.0 0.2 12 54
+ 0.6 3 4 cbr 500 ------- 3 3.0 1.2 12 55
- 0.6 3 4 cbr 500 ------- 3 3.0 1.2 12 55
h 0.6 0 4 cbr 500 ------- 0 0.0 2.2 20 88
h 0.6 1 4 cbr 500 ------- 1 1.0 3.2 20 89
h 0.6 2 4 cbr 500 ------- 2 2.0 0.2 20 90
h 0.6 3 4 cbr 500 ------- 3 3.0 1.2 20 91
r 0.600004 4 2 cbr 500 ------- 0 0.0 2.2 4 20
r 0.600004 4 3 cbr 500 ------- 1 1.0 3.2 4 21
r 0.600004 4 0 cbr 500 ------- 2 2.0 0.2 4 22
r 0.600004 4 1 cbr 500 ------- 3 3.0 1.2 4 23
d 0.600004 3 4 cbr 500 ------- 0 0.0 2.2 12 52
d 0.600004 1 4 cbr 500 ------- 0 0.0 2.2 12 52
d 0.600004 2 4 cbr 500 ------- 1 1.0 3.2 12 53
d 0.600004 0 4 cbr 500 ------- 1 1.0 3.2 12 53
d 0.600004 3 4 cbr 500 ------- 2 2.0 0.2 12 54
d 0.600004 1 4 cbr 500 ------- 2 2.0 0.2 12 54
d 0.600004 2 4 cbr 500 ------- 3 3.0 1.2 12 55
d 0.600004 0 4 cbr 500 ------- 3 3.0 1.2 12 55
+ 0.605 0 4 cbr 500 ------- 0 0.0 2.2 13 56
- 0.605 0 4 cbr 500 ------- 0 0.0 2.2 13 56
+ 0.605 1 4 cbr 500 ------- 1 1.0 3.2 13 57
- 0.605 1 4 cbr 500 ------- 1 1.0 3.2 13 57
+ 0.605 2 4 cbr 500 ------- 2 2.0 0.2 13 58
- 0.605 2 4 cbr 500 ------- 2 2.0 0.2 13 58
+ 0.605 3 4 cbr 500 ------- 3 3.0 1.2 13 59
- 0.605 3 4 cbr 500 ------- 3 3.0 1.2 13 59
h 0.605 0 4 cbr 500 ------- 0 0.0 2.2 21 92
h 0.605 1 4 cbr 500 ------- 1 1.0 3.2 21 93
h 0.605 2 4 cbr 500 ------- 2 2.0 0.2 21 94
h 0.605 3 4 cbr 500 ------- 3 3.0 1.2 21 95
r 0.605004 4 2 cbr 500 ------- 0 0.0 2.2 5 24
r 0.605004 4 3 cbr 500 ------- 1 1.0 3.2 5 25
r 0.605004 4 0 cbr 500 ------- 2 2.0 0.2 5 26
r 0.605004 4 1 cbr 500 ------- 3 3.0 1.2 5 27
d 0.605004 3 4 cbr 500 ------- 0 0.0 2.2 13 56
d 0.605004 1 4 cbr 500 ------- 0 0.0 2.2 13 56
d 0.605004 2 4 cbr 500 ------- 1 1.0 3.2 13 57
d 0.605004 0 4 cbr 500 ------- 1 1.0 3.2 13 57
d 0.605004 3 4 cbr 500 ------- 2 2.0 0.2 13 58
d 0.605004 1 4 cbr 500 ------- 2 2.0 0.2 13 58
d 0.605004 2 4 cbr 500 ------- 3 3.0 1.2 13 59
d 0.605004 0 4 cbr 500 ------- 3 3.0 1.2 13 59
+ 0.61 0 4 cbr 500 ------- 0 0.0 2.2 14 60
- 0.61 0 4 cbr 500 ------- 0 0.0 2.2 14 60
+ 0.61 1 4 cbr 500 ------- 1 1.0 3.2 14 61
- 0.61 1 4 cbr 500 ------- 1 1.0 3.2 14 61
+ 0.61 2 4 cbr 500 ------- 2 2.0 0.2 14 62
- 0.61 2 4 cbr 500 ------- 2 2.0 0.2 14 62
+ 0.61 3 4 cbr 500 ------- 3 3.0 1.2 14 63
- 0.61 3 4 cbr 500 ------- 3 3.0 1.2 14 63
h 0.61 0 4 cbr 500 ------- 0 0.0 2.2 22 96
h 0.61 1 4 cbr 500 ------- 1 1.0 3.2 22 97
h 0.61 2 4 cbr 500 ------- 2 2.0 0.2 22 98
h 0.61 3 4 cbr 500 ------- 3 3.0 1.2 22 99
r 0.610004 4 2 cbr 500 ------- 0 0.0 2.2 6 28
r 0.610004 4 3 cbr 500 ------- 1 1.0 3.2 6 29
r 0.610004 4 0 cbr 500 ------- 2 2.0 0.2 6 30
r 0.610004 4 1 cbr 500 ------- 3 3.0 1.2 6 31
d 0.610004 3 4 cbr 500 ------- 0 0.0 2.2 14 60
d 0.610004 1 4 cbr 500 ------- 0 0.0 2.2 14 60
d 0.610004 2 4 cbr 500 ------- 1 1.0 3.2 14 61
d 0.610004 0 4 cbr 500 ------- 1 1.0 3.2 14 61
d 0.610004 3 4 cbr 500 ------- 2 2.0 0.2 14 62
d 0.610004 1 4 cbr 500 ------- 2 2.0 0.2 14 62
d 0.610004 2 4 cbr 500 ------- 3 3.0 1.2 14 63
d 0.610004 0 4 cbr 500 ------- 3 3.0 1.2 14 63
+ 0.615 0 4 cbr 500 ------- 0 0.0 2.2 15 64
- 0.615 0 4 cbr 500 ------- 0 0.0 2.2 15 64
+ 0.615 1 4 cbr 500 ------- 1 1.0 3.2 15 65
- 0.615 1 4 cbr 500 ------- 1 1.0 3.2 15 65
+ 0.615 2 4 cbr 500 ------- 2 2.0 0.2 15 66
- 0.615 2 4 cbr 500 ------- 2 2.0 0.2 15 66
+ 0.615 3 4 cbr 500 ------- 3 3.0 1.2 15 67
- 0.615 3 4 cbr 500 ------- 3 3.0 1.2 15 67
h 0.615 0 4 cbr 500 ------- 0 0.0 2.2 23 100
h 0.615 1 4 cbr 500 ------- 1 1.0 3.2 23 101
h 0.615 2 4 cbr 500 ------- 2 2.0 0.2 23 102
h 0.615 3 4 cbr 500 ------- 3 3.0 1.2 23 103
r 0.615004 4 2 cbr 500 ------- 0 0.0 2.2 7 32
r 0.615004 4 3 cbr 500 ------- 1 1.0 3.2 7 33
r 0.615004 4 0 cbr 500 ------- 2 2.0 0.2 7 34
r 0.615004 4 1 cbr 500 ------- 3 3.0 1.2 7 35
d 0.615004 3 4 cbr 500 ------- 0 0.0 2.2 15 64
d 0.615004 1 4 cbr 500 ------- 0 0.0 2.2 15 64
d 0.615004 2 4 cbr 500 ------- 1 1.0 3.2 15 65
d 0.615004 0 4 cbr 500 ------- 1 1.0 3.2 15 65
d 0.615004 3 4 cbr 500 ------- 2 2.0 0.2 15 66
d 0.615004 1 4 cbr 500 ------- 2 2.0 0.2 15 66
d 0.615004 2 4 cbr 500 ------- 3 3.0 1.2 15 67
d 0.615004 0 4 cbr 500 ------- 3 3.0 1.2 15 67
+ 0.62 0 4 cbr 500 ------- 0 0.0 2.2 16 68
- 0.62 0 4 cbr 500 ------- 0 0.0 2.2 16 68
+ 0.62 1 4 cbr 500 ------- 1 1.0 3.2 16 69
- 0.62 1 4 cbr 500 ------- 1 1.0 3.2 16 69
+ 0.62 2 4 cbr 500 ------- 2 2.0 0.2 16 70
- 0.62 2 4 cbr 500 ------- 2 2.0 0.2 16 70
+ 0.62 3 4 cbr 500 ------- 3 3.0 1.2 16 71
- 0.62 3 4 cbr 500 ------- 3 3.0 1.2 16 71
h 0.62 0 4 cbr 500 ------- 0 0.0 2.2 24 104
h 0.62 1 4 cbr 500 ------- 1 1.0 3.2 24 105
h 0.62 2 4 cbr 500 ------- 2 2.0 0.2 24 106
h 0.62 3 4 cbr 500 ------- 3 3.0 1.2 24 107
+ 0.620004 1 4 ack 40 ------- 0 1.3 0.1 0 72
+ 0.620004 2 4 ack 40 ------- 1 2.3 1.1 0 73
+ 0.620004 3 4 ack 40 ------- 2 3.3 2.1 0 74
+ 0.620004 0 4 ack 40 ------- 3 0.3 3.1 0 75
r 0.620004 4 2 cbr 500 ------- 0 0.0 2.2 8 36
r 0.620004 4 3 cbr 500 ------- 1 1.0 3.2 8 37
r 0.620004 4 0 cbr 500 ------- 2 2.0 0.2 8 38
r 0.620004 4 1 cbr 500 ------- 3 3.0 1.2 8 39
d 0.620004 3 4 cbr 500 ------- 0 0.0 2.2 16 68
d 0.620004 1 4 cbr 500 ------- 0 0.0 2.2 16 68
d 0.620004 2 4 cbr 500 ------- 1 1.0 3.2 16 69
d 0.620004 0 4 cbr 500 ------- 1 1.0 3.2 16 69
d 0.620004 3 4 cbr 500 ------- 2 2.0 0.2 16 70
d 0.620004 1 4 cbr 500 ------- 2 2.0 0.2 16 70
d 0.620004 2 4 cbr 500 ------- 3 3.0 1.2 16 71
d 0.620004 0 4 cbr 500 ------- 3 3.0 1.2 16 71
- 0.622256 0 4 ack 40 ------- 3 0.3 3.1 0 75
- 0.622256 1 4 ack 40 ------- 0 1.3 0.1 0 72
- 0.622256 2 4 ack 40 ------- 1 2.3 1.1 0 73
- 0.622256 3 4 ack 40 ------- 2 3.3 2.1 0 74
d 0.62226 2 4 ack 40 ------- 3 0.3 3.1 0 75
d 0.62226 1 4 ack 40 ------- 3 0.3 3.1 0 75
d 0.62226 3 4 ack 40 ------- 0 1.3 0.1 0 72
d 0.62226 2 4 ack 40 ------- 0 1.3 0.1 0 72
d 0.62226 3 4 ack 40 ------- 1 2.3 1.1 0 73
d 0.62226 0 4 ack 40 ------- 1 2.3 1.1 0 73
d 0.62226 1 4 ack 40 ------- 2 3.3 2.1 0 74
d 0.62226 0 4 ack 40 ------- 2 3.3 2.1 0 74
+ 0.625 0 4 cbr 500 ------- 0 0.0 2.2 17 76
- 0.625 0 4 cbr 500 ------- 0 0.0 2.2 17 76
+ 0.625 1 4 cbr 500 ------- 1 1.0 3.2 17 77
- 0.625 1 4 cbr 500 ------- 1 1.0 3.2 17 77
+ 0.625 2 4 cbr 500 ------- 2 2.0 0.2 17 78
- 0.625 2 4 cbr 500 ------- 2 2.0 0.2 17 78
+ 0.625 3 4 cbr 500 ------- 3 3.0 1.2 17 79
- 0.625 3 4 cbr 500 ------- 3 3.0 1.2 17 79
h 0.625 0 4 cbr 500 ------- 0 0.0 2.2 25 108
h 0.625 1 4 cbr 500 ------- 1 1.0 3.2 25 109
h 0.625 2 4 cbr 500 ------- 2 2.0 0.2 25 110
h 0.625 3 4 cbr 500 ------- 3 3.0 1.2 25 111
r 0.625004 4 2 cbr 500 ------- 0 0.0 2.2 9 40
r 0.625004 4 3 cbr 500 ------- 1 1.0 3.2 9 41
r 0.625004 4 0 cbr 500 ------- 2 2.0 0.2 9 42
r 0.625004 4 1 cbr 500 ------- 3 3.0 1.2 9 43
d 0.625004 3 4 cbr 500 ------- 0 0.0 2.2 17 76
d 0.625004 1 4 cbr 500 ------- 0 0.0 2.2 17 76
d 0.625004 2 4 cbr 500 ------- 1 1.0 3.2 17 77
d 0.625004 0 4 cbr 500 ------- 1 1.0 3.2 17 77
d 0.625004 3 4 cbr 500 ------- 2 2.0 0.2 17 78
d 0.625004 1 4 cbr 500 ------- 2 2.0 0.2 17 78
d 0.625004 2 4 cbr 500 ------- 3 3.0 1.2 17 79
d 0.625004 0 4 cbr 500 ------- 3 3.0 1.2 17 79
+ 0.63 0 4 cbr 500 ------- 0 0.0 2.2 18 80
- 0.63 0 4 cbr 500 ------- 0 0.0 2.2 18 80
+ 0.63 1 4 cbr 500 ------- 1 1.0 3.2 18 81
- 0.63 1 4 cbr 500 ------- 1 1.0 3.2 18 81
+ 0.63 2 4 cbr 500 ------- 2 2.0 0.2 18 82
- 0.63 2 4 cbr 500 ------- 2 2.0 0.2 18 82
+ 0.63 3 4 cbr 500 ------- 3 3.0 1.2 18 83
- 0.63 3 4 cbr 500 ------- 3 3.0 1.2 18 83
h 0.63 0 4 cbr 500 ------- 0 0.0 2.2 26 112
h 0.63 1 4 cbr 500 ------- 1 1.0 3.2 26 113
h 0.63 2 4 cbr 500 ------- 2 2.0 0.2 26 114
h 0.63 3 4 cbr 500 ------- 3 3.0 1.2 26 115
r 0.630004 4 2 cbr 500 ------- 0 0.0 2.2 10 44
r 0.630004 4 3 cbr 500 ------- 1 1.0 3.2 10 45
r 0.630004 4 0 cbr 500 ------- 2 2.0 0.2 10 46
r 0.630004 4 1 cbr 500 ------- 3 3.0 1.2 10 47
d 0.630004 3 4 cbr 500 ------- 0 0.0 2.2 18 80
d 0.630004 1 4 cbr 500 ------- 0 0.0 2.2 18 80
d 0.630004 2 4 cbr 500 ------- 1 1.0 3.2 18 81
d 0.630004 0 4 cbr 500 ------- 1 1.0 3.2 18 81
d 0.630004 3 4 cbr 500 ------- 2 2.0 0.2 18 82
d 0.630004 1 4 cbr 500 ------- 2 2.0 0.2 18 82
d 0.630004 2 4 cbr 500 ------- 3 3.0 1.2 18 83
d 0.630004 0 4 cbr 500 ------- 3 3.0 1.2 18 83
+ 0.635 0 4 cbr 500 ------- 0 0.0 2.2 19 84
- 0.635 0 4 cbr 500 ------- 0 0.0 2.2 19 84
+ 0.635 1 4 cbr 500 ------- 1 1.0 3.2 19 85
- 0.635 1 4 cbr 500 ------- 1 1.0 3.2 19 85
+ 0.635 2 4 cbr 500 ------- 2 2.0 0.2 19 86
- 0.635 2 4 cbr 500 ------- 2 2.0 0.2 19 86
+ 0.635 3 4 cbr 500 ------- 3 3.0 1.2 19 87
- 0.635 3 4 cbr 500 ------- 3 3.0 1.2 19 87
h 0.635 0 4 cbr 500 ------- 0 0.0 2.2 27 116
h 0.635 1 4 cbr 500 ------- 1 1.0 3.2 27 117
h 0.635 2 4 cbr 500 ------- 2 2.0 0.2 27 118
h 0.635 3 4 cbr 500 ------- 3 3.0 1.2 27 119
r 0.635004 4 2 cbr 500 ------- 0 0.0 2.2 11 48
r 0.635004 4 3 cbr 500 ------- 1 1.0 3.2 11 49
r 0.635004 4 0 cbr 500 ------- 2 2.0 0.2 11 50
r 0.635004 4 1 cbr 500 ------- 3 3.0 1.2 11 51
d 0.635004 3 4 cbr 500 ------- 0 0.0 2.2 19 84
d 0.635004 1 4 cbr 500 ------- 0 0.0 2.2 19 84
d 0.635004 2 4 cbr 500 ------- 1 1.0 3.2 19 85
d 0.635004 0 4 cbr 500 ------- 1 1.0 3.2 19 85
d 0.635004 3 4 cbr 500 ------- 2 2.0 0.2 19 86
d 0.635004 1 4 cbr 500 ------- 2 2.0 0.2 19 86
d 0.635004 2 4 cbr 500 ------- 3 3.0 1.2 19 87
d 0.635004 0 4 cbr 500 ------- 3 3.0 1.2 19 87
+ 0.64 0 4 cbr 500 ------- 0 0.0 2.2 20 88
- 0.64 0 4 cbr 500 ------- 0 0.0 2.2 20 88
+ 0.64 1 4 cbr 500 ------- 1 1.0 3.2 20 89
- 0.64 1 4 cbr 500 ------- 1 1.0 3.2 20 89
+ 0.64 2 4 cbr 500 ------- 2 2.0 0.2 20 90
- 0.64 2 4 cbr 500 ------- 2 2.0 0.2 20 90
+ 0.64 3 4 cbr 500 ------- 3 3.0 1.2 20 91
- 0.64 3 4 cbr 500 ------- 3 3.0 1.2 20 91
h 0.64 0 4 cbr 500 ------- 0 0.0 2.2 28 120
h 0.64 1 4 cbr 500 ------- 1 1.0 3.2 28 121
h 0.64 2 4 cbr 500 ------- 2 2.0 0.2 28 122
h 0.64 3 4 cbr 500 ------- 3 3.0 1.2 28 123
r 0.640004 4 2 cbr 500 ------- 0 0.0 2.2 12 52
r 0.640004 4 3 cbr 500 ------- 1 1.0 3.2 12 53
r 0.640004 4 0 cbr 500 ------- 2 2.0 0.2 12 54
r 0.640004 4 1 cbr 500 ------- 3 3.0 1.2 12 55
d 0.640004 3 4 cbr 500 ------- 0 0.0 2.2 20 88
d 0.640004 1 4 cbr 500 ------- 0 0.0 2.2 20 88
d 0.640004 2 4 cbr 500 ------- 1 1.0 3.2 20 89
d 0.640004 0 4 cbr 500 ------- 1 1.0 3.2 20 89
d 0.640004 3 4 cbr 500 ------- 2 2.0 0.2 20 90
d 0.640004 1 4 cbr 500 ------- 2 2.0 0.2 20 90
d 0.640004 2 4 cbr 500 ------- 3 3.0 1.2 20 91
d 0.640004 0 4 cbr 500 ------- 3 3.0 1.2 20 91
+ 0.645 0 4 cbr 500 ------- 0 0.0 2.2 21 92
- 0.645 0 4 cbr 500 ------- 0 0.0 2.2 21 92
+ 0.645 1 4 cbr 500 ------- 1 1.0 3.2 21 93
- 0.645 1 4 cbr 500 ------- 1 1.0 3.2 21 93
+ 0.645 2 4 cbr 500 ------- 2 2.0 0.2 21 94
- 0.645 2 4 cbr 500 ------- 2 2.0 0.2 21 94
+ 0.645 3 4 cbr 500 ------- 3 3.0 1.2 21 95
- 0.645 3 4 cbr 500 ------- 3 3.0 1.2 21 95
h 0.645 0 4 cbr 500 ------- 0 0.0 2.2 29 124
h 0.645 1 4 cbr 500 ------- 1 1.0 3.2 29 125
h 0.645 2 4 cbr 500 ------- 2 2.0 0.2 29 126
h 0.645 3 4 cbr 500 ------- 3 3.0 1.2 29 127
r 0.645004 4 2 cbr 500 ------- 0 0.0 2.2 13 56
r 0.645004 4 3 cbr 500 ------- 1 1.0 3.2 13 57
r 0.645004 4 0 cbr 500 ------- 2 2.0 0.2 13 58
r 0.645004 4 1 cbr 500 ------- 3 3.0 1.2 13 59
d 0.645004 3 4 cbr 500 ------- 0 0.0 2.2 21 92
d 0.645004 1 4 cbr 500 ------- 0 0.0 2.2 21 92
d 0.645004 2 4 cbr 500 ------- 1 1.0 3.2 21 93
d 0.645004 0 4 cbr 500 ------- 1 1.0 3.2 21 93
d 0.645004 3 4 cbr 500 ------- 2 2.0 0.2 21 94
d 0.645004 1 4 cbr 500 ------- 2 2.0 0.2 21 94
d 0.645004 2 4 cbr 500 ------- 3 3.0 1.2 21 95
d 0.645004 0 4 cbr 500 ------- 3 3.0 1.2 21 95
+ 0.65 0 4 cbr 500 ------- 0 0.0 2.2 22 96
- 0.65 0 4 cbr 500 ------- 0 0.0 2.2 22 96
+ 0.65 1 4 cbr 500 ------- 1 1.0 3.2 22 97
- 0.65 1 4 cbr 500 ------- 1 1.0 3.2 22 97
+ 0.65 2 4 cbr 500 ------- 2 2.0 0.2 22 98
- 0.65 2 4 cbr 500 ------- 2 2.0 0.2 22 98
+ 0.65 3 4 cbr 500 ------- 3 3.0 1.2 22 99
- 0.65 3 4 cbr 500 ------- 3 3.0 1.2 22 99
h 0.65 0 4 cbr 500 ------- 0 0.0 2.2 30 128
h 0.65 1 4 cbr 500 ------- 1 1.0 3.2 30 129
h 0.65 2 4 cbr 500 ------- 2 2.0 0.2 30 130
h 0.65 3 4 cbr 500 ------- 3 3.0 1.2 30 131
r 0.650004 4 2 cbr 500 ------- 0 0.0 2.2 14 60
r 0.650004 4 3 cbr 500 ------- 1 1.0 3.2 14 61
r 0.650004 4 0 cbr 500 ------- 2 2.0 0.2 14 62
r 0.650004 4 1 cbr 500 ------- 3 3.0 1.2 14 63
d 0.650004 3 4 cbr 500 ------- 0 0.0 2.2 22 96
d 0.650004 1 4 cbr 500 ------- 0 0.0 2.2 22 96
d 0.650004 2 4 cbr 500 ------- 1 1.0 3.2 22 97
d 0.650004 0 4 cbr 500 ------- 1 1.0 3.2 22 97
d 0.650004 3 4 cbr 500 ------- 2 2.0 0.2 22 98
d 0.650004 1 4 cbr 500 ------- 2 2.0 0.2 22 98
d 0.650004 2 4 cbr 500 ------- 3 3.0 1.2 22 99
d 0.650004 0 4 cbr 500 ------- 3 3.0 1.2 22 99
+ 0.655 0 4 cbr 500 ------- 0 0.0 2.2 23 100
- 0.655 0 4 cbr 500 ------- 0 0.0 2.2 23 100
+ 0.655 1 4 cbr 500 ------- 1 1.0 3.2 23 101
- 0.655 1 4 cbr 500 ------- 1 1.0 3.2 23 101
+ 0.655 2 4 cbr 500 ------- 2 2.0 0.2 23 102
- 0.655 2 4 cbr 500 ------- 2 2.0 0.2 23 102
+ 0.655 3 4 cbr 500 ------- 3 3.0 1.2 23 103
- 0.655 3 4 cbr 500 ------- 3 3.0 1.2 23 103
h 0.655 0 4 cbr 500 ------- 0 0.0 2.2 31 132
h 0.655 1 4 cbr 500 ------- 1 1.0 3.2 31 133
h 0.655 2 4 cbr 500 ------- 2 2.0 0.2 31 134
h 0.655 3 4 cbr 500 ------- 3 3.0 1.2 31 135
r 0.655004 4 2 cbr 500 ------- 0 0.0 2.2 15 64
r 0.655004 4 3 cbr 500 ------- 1 1.0 3.2 15 65
r 0.655004 4 0 cbr 500 ------- 2 2.0 0.2 15 66
r 0.655004 4 1 cbr 500 ------- 3 3.0 1.2 15 67
d 0.655004 3 4 cbr 500 ------- 0 0.0 2.2 23 100
d 0.655004 1 4 cbr 500 ------- 0 0.0 2.2 23 100
d 0.655004 2 4 cbr 500 ------- 1 1.0 3.2 23 101
d 0.655004 0 4 cbr 500 ------- 1 1.0 3.2 23 101
d 0.655004 3 4 cbr 500 ------- 2 2.0 0.2 23 102
d 0.655004 1 4 cbr 500 ------- 2 2.0 0.2 23 102
d 0.655004 2 4 cbr 500 ------- 3 3.0 1.2 23 103
d 0.655004 0 4 cbr 500 ------- 3 3.0 1.2 23 103
+ 0.66 0 4 cbr 500 ------- 0 0.0 2.2 24 104
- 0.66 0 4 cbr 500 ------- 0 0.0 2.2 24 104
+ 0.66 1 4 cbr 500 ------- 1 1.0 3.2 24 105
- 0.66 1 4 cbr 500 ------- 1 1.0 3.2 24 105
+ 0.66 2 4 cbr 500 ------- 2 2.0 0.2 24 106
- 0.66 2 4 cbr 500 ------- 2 2.0 0.2 24 106
+ 0.66 3 4 cbr 500 ------- 3 3.0 1.2 24 107
- 0.66 3 4 cbr 500 ------- 3 3.0 1.2 24 107
h 0.66 0 4 cbr 500 ------- 0 0.0 2.2 32 136
h 0.66 1 4 cbr 500 ------- 1 1.0 3.2 32 137
h 0.66 2 4 cbr 500 ------- 2 2.0 0.2 32 138
h 0.66 3 4 cbr 500 ------- 3 3.0 1.2 32 139
r 0.660004 4 2 cbr 500 ------- 0 0.0 2.2 16 68
r 0.660004 4 3 cbr 500 ------- 1 1.0 3.2 16 69
r 0.660004 4 0 cbr 500 ------- 2 2.0 0.2 16 70
r 0.660004 4 1 cbr 500 ------- 3 3.0 1.2 16 71
d 0.660004 3 4 cbr 500 ------- 0 0.0 2.2 24 104
d 0.660004 1 4 cbr 500 ------- 0 0.0 2.2 24 104
d 0.660004 2 4 cbr 500 ------- 1 1.0 3.2 24 105
d 0.660004 0 4 cbr 500 ------- 1 1.0 3.2 24 105
d 0.660004 3 4 cbr 500 ------- 2 2.0 0.2 24 106
d 0.660004 1 4 cbr 500 ------- 2 2.0 0.2 24 106
d 0.660004 2 4 cbr 500 ------- 3 3.0 1.2 24 107
d 0.660004 0 4 cbr 500 ------- 3 3.0 1.2 24 107
r 0.66226 4 3 ack 40 ------- 3 0.3 3.1 0 75
h 0.66226 3 4 tcp 1040 ------- 3 3.1 0.3 1 140
h 0.66226 3 4 tcp 1040 ------- 3 3.1 0.3 2 141
r 0.66226 4 0 ack 40 ------- 0 1.3 0.1 0 72
h 0.66226 0 4 tcp 1040 ------- 0 0.1 1.3 1 142
h 0.66226 0 4 tcp 1040 ------- 0 0.1 1.3 2 143
r 0.66226 4 1 ack 40 ------- 1 2.3 1.1 0 73
h 0.66226 1 4 tcp 1040 ------- 1 1.1 2.3 1 144
h 0.66226 1 4 tcp 1040 ------- 1 1.1 2.3 2 145
r 0.66226 4 2 ack 40 ------- 2 3.3 2.1 0 74
h 0.66226 2 4 tcp 1040 ------- 2 2.1 3.3 1 146
h 0.66226 2 4 tcp 1040 ------- 2 2.1 3.3 2 147
+ 0.665 0 4 cbr 500 ------- 0 0.0 2.2 25 108
- 0.665 0 4 cbr 500 ------- 0 0.0 2.2 25 108
+ 0.665 1 4 cbr 500 ------- 1 1.0 3.2 25 109
- 0.665 1 4 cbr 500 ------- 1 1.0 3.2 25 109
+ 0.665 2 4 cbr 500 ------- 2 2.0 0.2 25 110
- 0.665 2 4 cbr 500 ------- 2 2.0 0.2 25 110
+ 0.665 3 4 cbr 500 ------- 3 3.0 1.2 25 111
- 0.665 3 4 cbr 500 ------- 3 3.0 1.2 25 111
h 0.665 0 4 cbr 500 ------- 0 0.0 2.2 33 148
h 0.665 1 4 cbr 500 ------- 1 1.0 3.2 33 149
h 0.665 2 4 cbr 500 ------- 2 2.0 0.2 33 150
h 0.665 3 4 cbr 500 ------- 3 3.0 1.2 33 151
r 0.665004 4 2 cbr 500 ------- 0 0.0 2.2 17 76
r 0.665004 4 3 cbr 500 ------- 1 1.0 3.2 17 77
r 0.665004 4 0 cbr 500 ------- 2 2.0 0.2 17 78
r 0.665004 4 1 cbr 500 ------- 3 3.0 1.2 17 79