n -t * -s 0  -x 5 -y 5 -Z 0 -z 30  -v circle -c black
n -t * -s 1  -x 490 -y 285 -Z 0 -z 30  -v circle -c black
n -t * -s 2  -x 150 -y 240 -Z 0 -z 30  -v circle -c black
V -t * -v 1.0a5 -a 0
W -t * -x 500 -y 400
A -t * -n 1 -p 0 -o 0x7fffffff -c 30 -a 1
A -t * -h 1 -m 1073741823 -s 0
+ -t 0.032821055 -s 1 -d -1 -p message -e 32 -c 2 -a 0 -i 0 -k RTR 
- -t 0.032821055 -s 1 -d -1 -p message -e 32 -c 2 -a 0 -i 0 -k RTR
h -t 0.032821055 -s 1 -d -1 -p message -e 32 -c 2 -a 0 -i 0 -k RTR
+ -t 0.178591360 -s 2 -d -1 -p message -e 32 -c 2 -a 0 -i 1 -k RTR 
- -t 0.178591360 -s 2 -d -1 -p message -e 32 -c 2 -a 0 -i 1 -k RTR
h -t 0.178591360 -s 2 -d -1 -p message -e 32 -c 2 -a 0 -i 1 -k RTR
+ -t 1.113402886 -s 0 -d -1 -p message -e 32 -c 2 -a 0 -i 2 -k RTR 
- -t 1.113402886 -s 0 -d -1 -p message -e 32 -c 2 -a 0 -i 2 -k RTR
h -t 1.113402886 -s 0 -d -1 -p message -e 32 -c 2 -a 0 -i 2 -k RTR
n -t 10.000000 -s 0 -x 5.000000 -y 5.000000 -U 2.121320 -V 2.121320 -T 115.494108
+ -t 10.000000000 -s 0 -d -1 -p tcp -e 40 -c 2 -a 0 -i 3 -k AGT 
- -t 10.000000000 -s 0 -d -1 -p tcp -e 40 -c 2 -a 0 -i 3 -k AGT
h -t 10.000000000 -s 0 -d -1 -p tcp -e 40 -c 2 -a 0 -i 3 -k AGT
+ -t 12.530838300 -s 0 -d -1 -p message -e 32 -c 2 -a 0 -i 4 -k RTR 
- -t 12.530838300 -s 0 -d -1 -p message -e 32 -c 2 -a 0 -i 4 -k RTR
h -t 12.530838300 -s 0 -d -1 -p message -e 32 -c 2 -a 0 -i 4 -k RTR
+ -t 13.000000000 -s 0 -d -1 -p tcp -e 40 -c 2 -a 0 -i 5 -k AGT 
- -t 13.000000000 -s 0 -d -1 -p tcp -e 40 -c 2 -a 0 -i 5 -k AGT
h -t 13.000000000 -s 0 -d -1 -p tcp -e 40 -c 2 -a 0 -i 5 -k AGT
+ -t 13.830059915 -s 2 -d -1 -p message -e 32 -c 2 -a 0 -i 6 -k RTR 
- -t 13.830059915 -s 2 -d -1 -p message -e 32 -c 2 -a 0 -i 6 -k RTR
h -t 13.830059915 -s 2 -d -1 -p message -e 32 -c 2 -a 0 -i 6 -k RTR
+ -t 14.280428760 -s 1 -d -1 -p message -e 32 -c 2 -a 0 -i 7 -k RTR 
- -t 14.280428760 -s 1 -d -1 -p message -e 32 -c 2 -a 0 -i 7 -k RTR
h -t 14.280428760 -s 1 -d -1 -p message -e 32 -c 2 -a 0 -i 7 -k RTR
+ -t 19.000000000 -s 0 -d -1 -p tcp -e 40 -c 2 -a 0 -i 8 -k AGT 
- -t 19.000000000 -s 0 -d -1 -p tcp -e 40 -c 2 -a 0 -i 8 -k AGT
h -t 19.000000000 -s 0 -d -1 -p tcp -e 40 -c 2 -a 0 -i 8 -k AGT
n -t 20.000000 -s 1 -x 490.000000 -y 285.000000 -U -5.000000 -V 0.000000 -T 89.000000
+ -t 25.369352037 -s 0 -d -1 -p message -e 32 -c 2 -a 0 -i 9 -k RTR 
- -t 25.369352037 -s 0 -d -1 -p message -e 32 -c 2 -a 0 -i 9 -k RTR
h -t 25.369352037 -s 0 -d -1 -p message -e 32 -c 2 -a 0 -i 9 -k RTR
r -t 25.370532808 -s 2 -d -1 -p message -e 32 -c 2 -a 0 -i 9 -k RTR
+ -t 26.386541965 -s 2 -d -1 -p message -e 32 -c 2 -a 0 -i 10 -k RTR 
- -t 26.386541965 -s 2 -d -1 -p message -e 32 -c 2 -a 0 -i 10 -k RTR
h -t 26.386541965 -s 2 -d -1 -p message -e 32 -c 2 -a 0 -i 10 -k RTR
r -t 26.387502727 -s 0 -d -1 -p message -e 32 -c 2 -a 0 -i 10 -k RTR
+ -t 27.274269018 -s 1 -d -1 -p message -e 32 -c 2 -a 0 -i 11 -k RTR 
- -t 27.274269018 -s 1 -d -1 -p message -e 32 -c 2 -a 0 -i 11 -k RTR
h -t 27.274269018 -s 1 -d -1 -p message -e 32 -c 2 -a 0 -i 11 -k RTR
n -t 30.000000 -s 0 -x 47.426407 -y 47.426407 -U 4.317856 -V 2.521135 -T 100.182500
+ -t 31.000000000 -s 0 -d -1 -p tcp -e 40 -c 2 -a 0 -i 12 -k AGT 
- -t 31.000000000 -s 0 -d -1 -p tcp -e 40 -c 2 -a 0 -i 12 -k AGT
h -t 31.000000000 -s 0 -d -1 -p tcp -e 40 -c 2 -a 0 -i 12 -k AGT
+ -t 37.379995458 -s 2 -d -1 -p message -e 32 -c 2 -a 0 -i 13 -k RTR 
- -t 37.379995458 -s 2 -d -1 -p message -e 32 -c 2 -a 0 -i 13 -k RTR
h -t 37.379995458 -s 2 -d -1 -p message -e 32 -c 2 -a 0 -i 13 -k RTR
r -t 37.381016084 -s 0 -d -1 -p message -e 32 -c 2 -a 0 -i 13 -k RTR
+ -t 37.425885784 -s 0 -d -1 -p message -e 32 -c 2 -a 0 -i 14 -k RTR 
- -t 37.425885784 -s 0 -d -1 -p message -e 32 -c 2 -a 0 -i 14 -k RTR
h -t 37.425885784 -s 0 -d -1 -p message -e 32 -c 2 -a 0 -i 14 -k RTR
r -t 37.427046409 -s 2 -d -1 -p message -e 32 -c 2 -a 0 -i 14 -k RTR
+ -t 38.426532792 -s 0 -d -1 -p message -e 32 -c 2 -a 0 -i 15 -k RTR 
- -t 38.426532792 -s 0 -d -1 -p message -e 32 -c 2 -a 0 -i 15 -k RTR
h -t 38.426532792 -s 0 -d -1 -p message -e 32 -c 2 -a 0 -i 15 -k RTR
r -t 38.427533405 -s 2 -d -1 -p message -e 32 -c 2 -a 0 -i 15 -k RTR
+ -t 40.045941996 -s 1 -d -1 -p message -e 32 -c 2 -a 0 -i 16 -k RTR 
- -t 40.045941996 -s 1 -d -1 -p message -e 32 -c 2 -a 0 -i 16 -k RTR
h -t 40.045941996 -s 1 -d -1 -p message -e 32 -c 2 -a 0 -i 16 -k RTR
r -t 40.046982809 -s 2 -d -1 -p message -e 32 -c 2 -a 0 -i 16 -k RTR
+ -t 40.493686470 -s 2 -d -1 -p message -e 32 -c 2 -a 0 -i 17 -k RTR 
- -t 40.493686470 -s 2 -d -1 -p message -e 32 -c 2 -a 0 -i 17 -k RTR
h -t 40.493686470 -s 2 -d -1 -p message -e 32 -c 2 -a 0 -i 17 -k RTR
r -t 40.494587056 -s 0 -d -1 -p message -e 32 -c 2 -a 0 -i 17 -k RTR
r -t 40.494587276 -s 1 -d -1 -p message -e 32 -c 2 -a 0 -i 17 -k RTR
+ -t 48.717695168 -s 0 -d -1 -p message -e 32 -c 2 -a 0 -i 18 -k RTR 
- -t 48.717695168 -s 0 -d -1 -p message -e 32 -c 2 -a 0 -i 18 -k RTR
h -t 48.717695168 -s 0 -d -1 -p message -e 32 -c 2 -a 0 -i 18 -k RTR
r -t 48.718815658 -s 2 -d -1 -p message -e 32 -c 2 -a 0 -i 18 -k RTR
+ -t 52.049050150 -s 2 -d -1 -p message -e 32 -c 2 -a 0 -i 19 -k RTR 
- -t 52.049050150 -s 2 -d -1 -p message -e 32 -c 2 -a 0 -i 19 -k RTR
h -t 52.049050150 -s 2 -d -1 -p message -e 32 -c 2 -a 0 -i 19 -k RTR
r -t 52.050350607 -s 0 -d -1 -p message -e 32 -c 2 -a 0 -i 19 -k RTR
+ -t 52.050350607 -s 0 -d 2 -p tcp -e 80 -c 2 -a 0 -i 3 -k RTR 
- -t 52.050350607 -s 0 -d 2 -p tcp -e 80 -c 2 -a 0 -i 3 -k RTR
h -t 52.050350607 -s 0 -d 2 -p tcp -e 80 -c 2 -a 0 -i 3 -k RTR
+ -t 52.050350607 -s 0 -d 2 -p tcp -e 80 -c 2 -a 0 -i 5 -k RTR 
- -t 52.050350607 -s 0 -d 2 -p tcp -e 80 -c 2 -a 0 -i 5 -k RTR
h -t 52.050350607 -s 0 -d 2 -p tcp -e 80 -c 2 -a 0 -i 5 -k RTR
d -t 52.050350607 -s 0 -d 2 -p tcp -e 80 -c 2 -a 0 -i 3 -k IFQ
+ -t 52.050350607 -s 0 -d 2 -p tcp -e 80 -c 2 -a 0 -i 8 -k RTR 
- -t 52.050350607 -s 0 -d 2 -p tcp -e 80 -c 2 -a 0 -i 8 -k RTR
h -t 52.050350607 -s 0 -d 2 -p tcp -e 80 -c 2 -a 0 -i 8 -k RTR
d -t 52.050350607 -s 0 -d 2 -p tcp -e 80 -c 2 -a 0 -i 5 -k IFQ
+ -t 52.050350607 -s 0 -d 2 -p tcp -e 80 -c 2 -a 0 -i 12 -k RTR 
- -t 52.050350607 -s 0 -d 2 -p tcp -e 80 -c 2 -a 0 -i 12 -k RTR
h -t 52.050350607 -s 0 -d 2 -p tcp -e 80 -c 2 -a 0 -i 12 -k RTR
d -t 52.050350607 -s 0 -d 2 -p tcp -e 80 -c 2 -a 0 -i 8 -k RTR
d -t 52.050350607 -s 0 -d 2 -p tcp -e 80 -c 2 -a 0 -i 12 -k RTR
r -t 52.050350767 -s 1 -d -1 -p message -e 32 -c 2 -a 0 -i 19 -k RTR
+ -t 52.502731278 -s 1 -d -1 -p message -e 32 -c 2 -a 0 -i 20 -k RTR 
- -t 52.502731278 -s 1 -d -1 -p message -e 32 -c 2 -a 0 -i 20 -k RTR
h -t 52.502731278 -s 1 -d -1 -p message -e 32 -c 2 -a 0 -i 20 -k RTR
r -t 52.503611888 -s 2 -d -1 -p message -e 32 -c 2 -a 0 -i 20 -k RTR
+ -t 53.340784103 -s 1 -d -1 -p message -e 44 -c 2 -a 0 -i 21 -k RTR 
- -t 53.340784103 -s 1 -d -1 -p message -e 44 -c 2 -a 0 -i 21 -k RTR
h -t 53.340784103 -s 1 -d -1 -p message -e 44 -c 2 -a 0 -i 21 -k RTR
r -t 53.341820700 -s 2 -d -1 -p message -e 44 -c 2 -a 0 -i 21 -k RTR
+ -t 53.341823773 -s 2 -d -1 -p message -e 44 -c 2 -a 0 -i 22 -k RTR 
- -t 53.341823773 -s 2 -d -1 -p message -e 44 -c 2 -a 0 -i 22 -k RTR
h -t 53.341823773 -s 2 -d -1 -p message -e 44 -c 2 -a 0 -i 22 -k RTR
r -t 53.343180218 -s 0 -d -1 -p message -e 44 -c 2 -a 0 -i 22 -k RTR
r -t 53.343180369 -s 1 -d -1 -p message -e 44 -c 2 -a 0 -i 22 -k RTR
+ -t 55.000000000 -s 0 -d -1 -p tcp -e 40 -c 2 -a 0 -i 23 -k AGT 
- -t 55.000000000 -s 0 -d -1 -p tcp -e 40 -c 2 -a 0 -i 23 -k AGT
h -t 55.000000000 -s 0 -d -1 -p tcp -e 40 -c 2 -a 0 -i 23 -k AGT
+ -t 55.000000000 -s 0 -d 2 -p tcp -e 60 -c 2 -a 0 -i 23 -k RTR 
- -t 55.000000000 -s 0 -d 2 -p tcp -e 60 -c 2 -a 0 -i 23 -k RTR
h -t 55.000000000 -s 0 -d 2 -p tcp -e 60 -c 2 -a 0 -i 23 -k RTR
+ -t 55.002021297 -s 2 -d 1 -p tcp -e 60 -c 2 -a 0 -i 23 -k RTR 
- -t 55.002021297 -s 2 -d 1 -p tcp -e 60 -c 2 -a 0 -i 23 -k RTR
h -t 55.002021297 -s 2 -d 1 -p tcp -e 60 -c 2 -a 0 -i 23 -k RTR
r -t 55.007120287 -s 1 -d 1 -p tcp -e 60 -c 2 -a 0 -i 23 -k AGT
+ -t 55.007120287 -s 1 -d -1 -p ack -e 40 -c 2 -a 0 -i 24 -k AGT 
- -t 55.007120287 -s 1 -d -1 -p ack -e 40 -c 2 -a 0 -i 24 -k AGT
h -t 55.007120287 -s 1 -d -1 -p ack -e 40 -c 2 -a 0 -i 24 -k AGT
+ -t 62.912856805 -s 0 -d -1 -p message -e 56 -c 2 -a 0 -i 25 -k RTR 
- -t 62.912856805 -s 0 -d -1 -p message -e 56 -c 2 -a 0 -i 25 -k RTR
h -t 62.912856805 -s 0 -d -1 -p message -e 56 -c 2 -a 0 -i 25 -k RTR
r -t 62.914309193 -s 2 -d -1 -p message -e 56 -c 2 -a 0 -i 25 -k RTR
r -t 62.914309394 -s 1 -d -1 -p message -e 56 -c 2 -a 0 -i 25 -k RTR
+ -t 62.914309394 -s 1 -d 0 -p ack -e 80 -c 2 -a 0 -i 24 -k RTR 
- -t 62.914309394 -s 1 -d 0 -p ack -e 80 -c 2 -a 0 -i 24 -k RTR
h -t 62.914309394 -s 1 -d 0 -p ack -e 80 -c 2 -a 0 -i 24 -k RTR
r -t 62.919239520 -s 0 -d 0 -p ack -e 80 -c 2 -a 0 -i 24 -k AGT
+ -t 62.919239520 -s 0 -d -1 -p tcp -e 1040 -c 2 -a 0 -i 26 -k AGT 
- -t 62.919239520 -s 0 -d -1 -p tcp -e 1040 -c 2 -a 0 -i 26 -k AGT
h -t 62.919239520 -s 0 -d -1 -p tcp -e 1040 -c 2 -a 0 -i 26 -k AGT
+ -t 62.919239520 -s 0 -d 2 -p tcp -e 1060 -c 2 -a 0 -i 26 -k RTR 
- -t 62.919239520 -s 0 -d 2 -p tcp -e 1060 -c 2 -a 0 -i 26 -k RTR
h -t 62.919239520 -s 0 -d 2 -p tcp -e 1060 -c 2 -a 0 -i 26 -k RTR
+ -t 62.929364685 -s 2 -d 1 -p tcp -e 1060 -c 2 -a 0 -i 26 -k RTR 
- -t 62.929364685 -s 2 -d 1 -p tcp -e 1060 -c 2 -a 0 -i 26 -k RTR
h -t 62.929364685 -s 2 -d 1 -p tcp -e 1060 -c 2 -a 0 -i 26 -k RTR
r -t 62.939670017 -s 1 -d 1 -p tcp -e 1060 -c 2 -a 0 -i 26 -k AGT
+ -t 62.939670017 -s 1 -d -1 -p ack -e 40 -c 2 -a 0 -i 27 -k AGT 
- -t 62.939670017 -s 1 -d -1 -p ack -e 40 -c 2 -a 0 -i 27 -k AGT
h -t 62.939670017 -s 1 -d -1 -p ack -e 40 -c 2 -a 0 -i 27 -k AGT
+ -t 62.939670017 -s 1 -d 0 -p ack -e 60 -c 2 -a 0 -i 27 -k RTR 
- -t 62.939670017 -s 1 -d 0 -p ack -e 60 -c 2 -a 0 -i 27 -k RTR
h -t 62.939670017 -s 1 -d 0 -p ack -e 60 -c 2 -a 0 -i 27 -k RTR
r -t 62.942155784 -s 0 -d 0 -p ack -e 60 -c 2 -a 0 -i 27 -k AGT
+ -t 62.942155784 -s 0 -d -1 -p tcp -e 1040 -c 2 -a 0 -i 28 -k AGT 
- -t 62.942155784 -s 0 -d -1 -p tcp -e 1040 -c 2 -a 0 -i 28 -k AGT
h -t 62.942155784 -s 0 -d -1 -p tcp -e 1040 -c 2 -a 0 -i 28 -k AGT
+ -t 62.942155784 -s 0 -d 2 -p tcp -e 1060 -c 2 -a 0 -i 28 -k RTR 
- -t 62.942155784 -s 0 -d 2 -p tcp -e 1060 -c 2 -a 0 -i 28 -k RTR
h -t 62.942155784 -s 0 -d 2 -p tcp -e 1060 -c 2 -a 0 -i 28 -k RTR
+ -t 62.942155784 -s 0 -d -1 -p tcp -e 1040 -c 2 -a 0 -i 29 -k AGT 
- -t 62.942155784 -s 0 -d -1 -p tcp -e 1040 -c 2 -a 0 -i 29 -k AGT
h -t 62.942155784 -s 0 -d -1 -p tcp -e 1040 -c 2 -a 0 -i 29 -k AGT
+ -t 62.942155784 -s 0 -d 2 -p tcp -e 1060 -c 2 -a 0 -i 29 -k RTR 
- -t 62.942155784 -s 0 -d 2 -p tcp -e 1060 -c 2 -a 0 -i 29 -k RTR
h -t 62.942155784 -s 0 -d 2 -p tcp -e 1060 -c 2 -a 0 -i 29 -k RTR
+ -t 62.952300949 -s 2 -d 1 -p tcp -e 1060 -c 2 -a 0 -i 28 -k RTR 
- -t 62.952300949 -s 2 -d 1 -p tcp -e 1060 -c 2 -a 0 -i 28 -k RTR
h -t 62.952300949 -s 2 -d 1 -p tcp -e 1060 -c 2 -a 0 -i 28 -k RTR
+ -t 62.962386502 -s 2 -d 1 -p tcp -e 1060 -c 2 -a 0 -i 29 -k RTR 
- -t 62.962386502 -s 2 -d 1 -p tcp -e 1060 -c 2 -a 0 -i 29 -k RTR
h -t 62.962386502 -s 2 -d 1 -p tcp -e 1060 -c 2 -a 0 -i 29 -k RTR
r -t 62.972531832 -s 1 -d 1 -p tcp -e 1060 -c 2 -a 0 -i 28 -k AGT
+ -t 62.972531832 -s 1 -d -1 -p ack -e 40 -c 2 -a 0 -i 30 -k AGT 
- -t 62.972531832 -s 1 -d -1 -p ack -e 40 -c 2 -a 0 -i 30 -k AGT
h -t 62.972531832 -s 1 -d -1 -p ack -e 40 -c 2 -a 0 -i 30 -k AGT
+ -t 62.972531832 -s 1 -d 0 -p ack -e 60 -c 2 -a 0 -i 30 -k RTR 
- -t 62.972531832 -s 1 -d 0 -p ack -e 60 -c 2 -a 0 -i 30 -k RTR
h -t 62.972531832 -s 1 -d 0 -p ack -e 60 -c 2 -a 0 -i 30 -k RTR
r -t 62.974577596 -s 0 -d 0 -p ack -e 60 -c 2 -a 0 -i 30 -k AGT
+ -t 62.974577596 -s 0 -d -1 -p tcp -e 1040 -c 2 -a 0 -i 31 -k AGT 
- -t 62.974577596 -s 0 -d -1 -p tcp -e 1040 -c 2 -a 0 -i 31 -k AGT
h -t 62.974577596 -s 0 -d -1 -p tcp -e 1040 -c 2 -a 0 -i 31 -k AGT
+ -t 62.974577596 -s 0 -d 2 -p tcp -e 1060 -c 2 -a 0 -i 31 -k RTR 
- -t 62.974577596 -s 0 -d 2 -p tcp -e 1060 -c 2 -a 0 -i 31 -k RTR
h -t 62.974577596 -s 0 -d 2 -p tcp -e 1060 -c 2 -a 0 -i 31 -k RTR
r -t 62.985043314 -s 1 -d 1 -p tcp -e 1060 -c 2 -a 0 -i 29 -k AGT
+ -t 62.985043314 -s 1 -d -1 -p ack -e 40 -c 2 -a 0 -i 32 -k AGT 
- -t 62.985043314 -s 1 -d -1 -p ack -e 40 -c 2 -a 0 -i 32 -k AGT
h -t 62.985043314 -s 1 -d -1 -p ack -e 40 -c 2 -a 0 -i 32 -k AGT
+ -t 62.985043314 -s 1 -d 0 -p ack -e 60 -c 2 -a 0 -i 32 -k RTR 
- -t 62.985043314 -s 1 -d 0 -p ack -e 60 -c 2 -a 0 -i 32 -k RTR
h -t 62.985043314 -s 1 -d 0 -p ack -e 60 -c 2 -a 0 -i 32 -k RTR
r -t 62.987049078 -s 0 -d 0 -p ack -e 60 -c 2 -a 0 -i 32 -k AGT
+ -t 62.987049078 -s 0 -d -1 -p tcp -e 1040 -c 2 -a 0 -i 33 -k AGT 
- -t 62.987049078 -s 0 -d -1 -p tcp -e 1040 -c 2 -a 0 -i 33 -k AGT
h -t 62.987049078 -s 0 -d -1 -p tcp -e 1040 -c 2 -a 0 -i 33 -k AGT
+ -t 62.987049078 -s 0 -d 2 -p tcp -e 1060 -c 2 -a 0 -i 33 -k RTR 
- -t 62.987049078 -s 0 -d 2 -p tcp -e 1060 -c 2 -a 0 -i 33 -k RTR
h -t 62.987049078 -s 0 -d 2 -p tcp -e 1060 -c 2 -a 0 -i 33 -k RTR
+ -t 62.997154242 -s 2 -d 1 -p tcp -e 1060 -c 2 -a 0 -i 31 -k RTR 
- -t 62.997154242 -s 2 -d 1 -p tcp -e 1060 -c 2 -a 0 -i 31 -k RTR
h -t 62.997154242 -s 2 -d 1 -p tcp -e 1060 -c 2 -a 0 -i 31 -k RTR
+ -t 63.007159795 -s 2 -d 1 -p tcp -e 1060 -c 2 -a 0 -i 33 -k RTR 
- -t 63.007159795 -s 2 -d 1 -p tcp -e 1060 -c 2 -a 0 -i 33 -k RTR
h -t 63.007159795 -s 2 -d 1 -p tcp -e 1060 -c 2 -a 0 -i 33 -k RTR
r -t 63.017385123 -s 1 -d 1 -p tcp -e 1060 -c 2 -a 0 -i 31 -k AGT
+ -t 63.017385123 -s 1 -d -1 -p ack -e 40 -c 2 -a 0 -i 34 -k AGT 
- -t 63.017385123 -s 1 -d -1 -p ack -e 40 -c 2 -a 0 -i 34 -k AGT
h -t 63.017385123 -s 1 -d -1 -p ack -e 40 -c 2 -a 0 -i 34 -k AGT
+ -t 63.017385123 -s 1 -d 0 -p ack -e 60 -c 2 -a 0 -i 34 -k RTR 
- -t 63.017385123 -s 1 -d 0 -p ack -e 60 -c 2 -a 0 -i 34 -k RTR
h -t 63.017385123 -s 1 -d 0 -p ack -e 60 -c 2 -a 0 -i 34 -k RTR
r -t 63.019750884 -s 0 -d 0 -p ack -e 60 -c 2 -a 0 -i 34 -k AGT
+ -t 63.019750884 -s 0 -d -1 -p tcp -e 1040 -c 2 -a 0 -i 35 -k AGT 
- -t 63.019750884 -s 0 -d -1 -p tcp -e 1040 -c 2 -a 0 -i 35 -k AGT
h -t 63.019750884 -s 0 -d -1 -p tcp -e 1040 -c 2 -a 0 -i 35 -k AGT
+ -t 63.019750884 -s 0 -d 2 -p tcp -e 1060 -c 2 -a 0 -i 35 -k RTR 
- -t 63.019750884 -s 0 -d 2 -p tcp -e 1060 -c 2 -a 0 -i 35 -k RTR
h -t 63.019750884 -s 0 -d 2 -p tcp -e 1060 -c 2 -a 0 -i 35 -k RTR
+ -t 63.019750884 -s 0 -d -1 -p tcp -e 1040 -c 2 -a 0 -i 36 -k AGT 
- -t 63.019750884 -s 0 -d -1 -p tcp -e 1040 -c 2 -a 0 -i 36 -k AGT
h -t 63.019750884 -s 0 -d -1 -p tcp -e 1040 -c 2 -a 0 -i 36 -k AGT
+ -t 63.019750884 -s 0 -d 2 -p tcp -e 1060 -c 2 -a 0 -i 36 -k RTR 
- -t 63.019750884 -s 0 -d 2 -p tcp -e 1060 -c 2 -a 0 -i 36 -k RTR
h -t 63.019750884 -s 0 -d 2 -p tcp -e 1060 -c 2 -a 0 -i 36 -k RTR
r -t 63.029816600 -s 1 -d 1 -p tcp -e 1060 -c 2 -a 0 -i 33 -k AGT
+ -t 63.029816600 -s 1 -d -1 -p ack -e 40 -c 2 -a 0 -i 37 -k AGT 
- -t 63.029816600 -s 1 -d -1 -p ack -e 40 -c 2 -a 0 -i 37 -k AGT
h -t 63.029816600 -s 1 -d -1 -p ack -e 40 -c 2 -a 0 -i 37 -k AGT
+ -t 63.029816600 -s 1 -d 0 -p ack -e 60 -c 2 -a 0 -i 37 -k RTR 
- -t 63.029816600 -s 1 -d 0 -p ack -e 60 -c 2 -a 0 -i 37 -k RTR
h -t 63.029816600 -s 1 -d 0 -p ack -e 60 -c 2 -a 0 -i 37 -k RTR
+ -t 63.040102351 -s 2 -d 1 -p tcp -e 1060 -c 2 -a 0 -i 35 -k RTR 
- -t 63.040102351 -s 2 -d 1 -p tcp -e 1060 -c 2 -a 0 -i 35 -k RTR
h -t 63.040102351 -s 2 -d 1 -p tcp -e 1060 -c 2 -a 0 -i 35 -k RTR
r -t 63.050107677 -s 1 -d 1 -p tcp -e 1060 -c 2 -a 0 -i 35 -k AGT
+ -t 63.050107677 -s 1 -d -1 -p ack -e 40 -c 2 -a 0 -i 38 -k AGT 
- -t 63.050107677 -s 1 -d -1 -p ack -e 40 -c 2 -a 0 -i 38 -k AGT
h -t 63.050107677 -s 1 -d -1 -p ack -e 40 -c 2 -a 0 -i 38 -k AGT
+ -t 63.050107677 -s 1 -d 0 -p ack -e 60 -c 2 -a 0 -i 38 -k RTR 
- -t 63.050107677 -s 1 -d 0 -p ack -e 60 -c 2 -a 0 -i 38 -k RTR
h -t 63.050107677 -s 1 -d 0 -p ack -e 60 -c 2 -a 0 -i 38 -k RTR
r -t 63.052193437 -s 0 -d 0 -p ack -e 60 -c 2 -a 0 -i 37 -k AGT
+ -t 63.052193437 -s 0 -d -1 -p tcp -e 1040 -c 2 -a 0 -i 39 -k AGT 
- -t 63.052193437 -s 0 -d -1 -p tcp -e 1040 -c 2 -a 0 -i 39 -k AGT
h -t 63.052193437 -s 0 -d -1 -p tcp -e 1040 -c 2 -a 0 -i 39 -k AGT
+ -t 63.052193437 -s 0 -d 2 -p tcp -e 1060 -c 2 -a 0 -i 39 -k RTR 
- -t 63.052193437 -s 0 -d 2 -p tcp -e 1060 -c 2 -a 0 -i 39 -k RTR
h -t 63.052193437 -s 0 -d 2 -p tcp -e 1060 -c 2 -a 0 -i 39 -k RTR
+ -t 63.062278601 -s 2 -d 1 -p tcp -e 1060 -c 2 -a 0 -i 36 -k RTR 
- -t 63.062278601 -s 2 -d 1 -p tcp -e 1060 -c 2 -a 0 -i 36 -k RTR
h -t 63.062278601 -s 2 -d 1 -p tcp -e 1060 -c 2 -a 0 -i 36 -k RTR
r -t 63.064364801 -s 0 -d 0 -p ack -e 60 -c 2 -a 0 -i 38 -k AGT
+ -t 63.064364801 -s 0 -d -1 -p tcp -e 1040 -c 2 -a 0 -i 40 -k AGT 
- -t 63.064364801 -s 0 -d -1 -p tcp -e 1040 -c 2 -a 0 -i 40 -k AGT
h -t 63.064364801 -s 0 -d -1 -p tcp -e 1040 -c 2 -a 0 -i 40 -k AGT
+ -t 63.064364801 -s 0 -d 2 -p tcp -e 1060 -c 2 -a 0 -i 40 -k RTR 
- -t 63.064364801 -s 0 -d 2 -p tcp -e 1060 -c 2 -a 0 -i 40 -k RTR
h -t 63.064364801 -s 0 -d 2 -p tcp -e 1060 -c 2 -a 0 -i 40 -k RTR
+ -t 63.074389965 -s 2 -d 1 -p tcp -e 1060 -c 2 -a 0 -i 39 -k RTR 
- -t 63.074389965 -s 2 -d 1 -p tcp -e 1060 -c 2 -a 0 -i 39 -k RTR
h -t 63.074389965 -s 2 -d 1 -p tcp -e 1060 -c 2 -a 0 -i 39 -k RTR
+ -t 63.084375516 -s 2 -d 1 -p tcp -e 1060 -c 2 -a 0 -i 40 -k RTR 
- -t 63.084375516 -s 2 -d 1 -p tcp -e 1060 -c 2 -a 0 -i 40 -k RTR
h -t 63.084375516 -s 2 -d 1 -p tcp -e 1060 -c 2 -a 0 -i 40 -k RTR
r -t 63.094620841 -s 1 -d 1 -p tcp -e 1060 -c 2 -a 0 -i 36 -k AGT
+ -t 63.094620841 -s 1 -d -1 -p ack -e 40 -c 2 -a 0 -i 41 -k AGT 
- -t 63.094620841 -s 1 -d -1 -p ack -e 40 -c 2 -a 0 -i 41 -k AGT
h -t 63.094620841 -s 1 -d -1 -p ack -e 40 -c 2 -a 0 -i 41 -k AGT
+ -t 63.094620841 -s 1 -d 0 -p ack -e 60 -c 2 -a 0 -i 41 -k RTR 
- -t 63.094620841 -s 1 -d 0 -p ack -e 60 -c 2 -a 0 -i 41 -k RTR
h -t 63.094620841 -s 1 -d 0 -p ack -e 60 -c 2 -a 0 -i 41 -k RTR
r -t 63.096606597 -s 0 -d 0 -p ack -e 60 -c 2 -a 0 -i 41 -k AGT
+ -t 63.096606597 -s 0 -d -1 -p tcp -e 1040 -c 2 -a 0 -i 42 -k AGT 
- -t 63.096606597 -s 0 -d -1 -p tcp -e 1040 -c 2 -a 0 -i 42 -k AGT
h -t 63.096606597 -s 0 -d -1 -p tcp -e 1040 -c 2 -a 0 -i 42 -k AGT
+ -t 63.096606597 -s 0 -d 2 -p tcp -e 1060 -c 2 -a 0 -i 42 -k RTR 
- -t 63.096606597 -s 0 -d 2 -p tcp -e 1060 -c 2 -a 0 -i 42 -k RTR
h -t 63.096606597 -s 0 -d 2 -p tcp -e 1060 -c 2 -a 0 -i 42 -k RTR
+ -t 63.096606597 -s 0 -d -1 -p tcp -e 1040 -c 2 -a 0 -i 43 -k AGT 
- -t 63.096606597 -s 0 -d -1 -p tcp -e 1040 -c 2 -a 0 -i 43 -k AGT
h -t 63.096606597 -s 0 -d -1 -p tcp -e 1040 -c 2 -a 0 -i 43 -k AGT
+ -t 63.096606597 -s 0 -d 2 -p tcp -e 1060 -c 2 -a 0 -i 43 -k RTR 
- -t 63.096606597 -s 0 -d 2 -p tcp -e 1060 -c 2 -a 0 -i 43 -k RTR
h -t 63.096606597 -s 0 -d 2 -p tcp -e 1060 -c 2 -a 0 -i 43 -k RTR
r -t 63.107132309 -s 1 -d 1 -p tcp -e 1060 -c 2 -a 0 -i 39 -k AGT
+ -t 63.107132309 -s 1 -d -1 -p ack -e 40 -c 2 -a 0 -i 44 -k AGT 
- -t 63.107132309 -s 1 -d -1 -p ack -e 40 -c 2 -a 0 -i 44 -k AGT
h -t 63.107132309 -s 1 -d -1 -p ack -e 40 -c 2 -a 0 -i 44 -k AGT
+ -t 63.107132309 -s 1 -d 0 -p ack -e 60 -c 2 -a 0 -i 44 -k RTR 
- -t 63.107132309 -s 1 -d 0 -p ack -e 60 -c 2 -a 0 -i 44 -k RTR
h -t 63.107132309 -s 1 -d 0 -p ack -e 60 -c 2 -a 0 -i 44 -k RTR
+ -t 63.117138057 -s 2 -d 1 -p tcp -e 1060 -c 2 -a 0 -i 42 -k RTR 
- -t 63.117138057 -s 2 -d 1 -p tcp -e 1060 -c 2 -a 0 -i 42 -k RTR
h -t 63.117138057 -s 2 -d 1 -p tcp -e 1060 -c 2 -a 0 -i 42 -k RTR
r -t 63.119144253 -s 0 -d 0 -p ack -e 60 -c 2 -a 0 -i 44 -k AGT
+ -t 63.119144253 -s 0 -d -1 -p tcp -e 1040 -c 2 -a 0 -i 45 -k AGT 
- -t 63.119144253 -s 0 -d -1 -p tcp -e 1040 -c 2 -a 0 -i 45 -k AGT
h -t 63.119144253 -s 0 -d -1 -p tcp -e 1040 -c 2 -a 0 -i 45 -k AGT
+ -t 63.119144253 -s 0 -d 2 -p tcp -e 1060 -c 2 -a 0 -i 45 -k RTR 
- -t 63.119144253 -s 0 -d 2 -p tcp -e 1060 -c 2 -a 0 -i 45 -k RTR
h -t 63.119144253 -s 0 -d 2 -p tcp -e 1060 -c 2 -a 0 -i 45 -k RTR
+ -t 63.129329417 -s 2 -d 1 -p tcp -e 1060 -c 2 -a 0 -i 43 -k RTR 
- -t 63.129329417 -s 2 -d 1 -p tcp -e 1060 -c 2 -a 0 -i 43 -k RTR
h -t 63.129329417 -s 2 -d 1 -p tcp -e 1060 -c 2 -a 0 -i 43 -k RTR
+ -t 63.139454967 -s 2 -d 1 -p tcp -e 1060 -c 2 -a 0 -i 45 -k RTR 
- -t 63.139454967 -s 2 -d 1 -p tcp -e 1060 -c 2 -a 0 -i 45 -k RTR
h -t 63.139454967 -s 2 -d 1 -p tcp -e 1060 -c 2 -a 0 -i 45 -k RTR
r -t 63.149660289 -s 1 -d 1 -p tcp -e 1060 -c 2 -a 0 -i 40 -k AGT
+ -t 63.149660289 -s 1 -d -1 -p ack -e 40 -c 2 -a 0 -i 46 -k AGT 
- -t 63.149660289 -s 1 -d -1 -p ack -e 40 -c 2 -a 0 -i 46 -k AGT
h -t 63.149660289 -s 1 -d -1 -p ack -e 40 -c 2 -a 0 -i 46 -k AGT
+ -t 63.149660289 -s 1 -d 0 -p ack -e 60 -c 2 -a 0 -i 46 -k RTR 
- -t 63.149660289 -s 1 -d 0 -p ack -e 60 -c 2 -a 0 -i 46 -k RTR
h -t 63.149660289 -s 1 -d 0 -p ack -e 60 -c 2 -a 0 -i 46 -k RTR
r -t 63.159746051 -s 1 -d 1 -p tcp -e 1060 -c 2 -a 0 -i 42 -k AGT
+ -t 63.159746051 -s 1 -d -1 -p ack -e 40 -c 2 -a 0 -i 47 -k AGT 
- -t 63.159746051 -s 1 -d -1 -p ack -e 40 -c 2 -a 0 -i 47 -k AGT
h -t 63.159746051 -s 1 -d -1 -p ack -e 40 -c 2 -a 0 -i 47 -k AGT
+ -t 63.159746051 -s 1 -d 0 -p ack -e 60 -c 2 -a 0 -i 47 -k RTR 
- -t 63.159746051 -s 1 -d 0 -p ack -e 60 -c 2 -a 0 -i 47 -k RTR
h -t 63.159746051 -s 1 -d 0 -p ack -e 60 -c 2 -a 0 -i 47 -k RTR
r -t 63.169911813 -s 1 -d 1 -p tcp -e 1060 -c 2 -a 0 -i 43 -k AGT
+ -t 63.169911813 -s 1 -d -1 -p ack -e 40 -c 2 -a 0 -i 48 -k AGT 
- -t 63.169911813 -s 1 -d -1 -p ack -e 40 -c 2 -a 0 -i 48 -k AGT
h -t 63.169911813 -s 1 -d -1 -p ack -e 40 -c 2 -a 0 -i 48 -k AGT
+ -t 63.169911813 -s 1 -d 0 -p ack -e 60 -c 2 -a 0 -i 48 -k RTR 
- -t 63.169911813 -s 1 -d 0 -p ack -e 60 -c 2 -a 0 -i 48 -k RTR
h -t 63.169911813 -s 1 -d 0 -p ack -e 60 -c 2 -a 0 -i 48 -k RTR
r -t 63.179897573 -s 1 -d 1 -p tcp -e 1060 -c 2 -a 0 -i 45 -k AGT
+ -t 63.179897573 -s 1 -d -1 -p ack -e 40 -c 2 -a 0 -i 49 -k AGT 
- -t 63.179897573 -s 1 -d -1 -p ack -e 40 -c 2 -a 0 -i 49 -k AGT
h -t 63.179897573 -s 1 -d -1 -p ack -e 40 -c 2 -a 0 -i 49 -k AGT
+ -t 63.179897573 -s 1 -d 0 -p ack -e 60 -c 2 -a 0 -i 49 -k RTR 
- -t 63.179897573 -s 1 -d 0 -p ack -e 60 -c 2 -a 0 -i 49 -k RTR
h -t 63.179897573 -s 1 -d 0 -p ack -e 60 -c 2 -a 0 -i 49 -k RTR
r -t 63.182123324 -s 0 -d 0 -p ack -e 60 -c 2 -a 0 -i 46 -k AGT
+ -t 63.182123324 -s 0 -d -1 -p tcp -e 1040 -c 2 -a 0 -i 50 -k AGT 
- -t 63.182123324 -s 0 -d -1 -p tcp -e 1040 -c 2 -a 0 -i 50 -k AGT
h -t 63.182123324 -s 0 -d -1 -p tcp -e 1040 -c 2 -a 0 -i 50 -k AGT
+ -t 63.182123324 -s 0 -d 2 -p tcp -e 1060 -c 2 -a 0 -i 50 -k RTR 
- -t 63.182123324 -s 0 -d 2 -p tcp -e 1060 -c 2 -a 0 -i 50 -k RTR
h -t 63.182123324 -s 0 -d 2 -p tcp -e 1060 -c 2 -a 0 -i 50 -k RTR
r -t 63.184349658 -s 0 -d 0 -p ack -e 60 -c 2 -a 0 -i 47 -k AGT
+ -t 63.184349658 -s 0 -d -1 -p tcp -e 1040 -c 2 -a 0 -i 51 -k AGT 
- -t 63.184349658 -s 0 -d -1 -p tcp -e 1040 -c 2 -a 0 -i 51 -k AGT
h -t 63.184349658 -s 0 -d -1 -p tcp -e 1040 -c 2 -a 0 -i 51 -k AGT
+ -t 63.184349658 -s 0 -d 2 -p tcp -e 1060 -c 2 -a 0 -i 51 -k RTR 
- -t 63.184349658 -s 0 -d 2 -p tcp -e 1060 -c 2 -a 0 -i 51 -k RTR
h -t 63.184349658 -s 0 -d 2 -p tcp -e 1060 -c 2 -a 0 -i 51 -k RTR
r -t 63.186335992 -s 0 -d 0 -p ack -e 60 -c 2 -a 0 -i 48 -k AGT
+ -t 63.186335992 -s 0 -d -1 -p tcp -e 1040 -c 2 -a 0 -i 52 -k AGT 
- -t 63.186335992 -s 0 -d -1 -p tcp -e 1040 -c 2 -a 0 -i 52 -k AGT
h -t 63.186335992 -s 0 -d -1 -p tcp -e 1040 -c 2 -a 0 -i 52 -k AGT
+ -t 63.186335992 -s 0 -d 2 -p tcp -e 1060 -c 2 -a 0 -i 52 -k RTR 
- -t 63.186335992 -s 0 -d 2 -p tcp -e 1060 -c 2 -a 0 -i 52 -k RTR
h -t 63.186335992 -s 0 -d 2 -p tcp -e 1060 -c 2 -a 0 -i 52 -k RTR
r -t 63.188442325 -s 0 -d 0 -p ack -e 60 -c 2 -a 0 -i 49 -k AGT
+ -t 63.188442325 -s 0 -d -1 -p tcp -e 1040 -c 2 -a 0 -i 53 -k AGT 
- -t 63.188442325 -s 0 -d -1 -p tcp -e 1040 -c 2 -a 0 -i 53 -k AGT
h -t 63.188442325 -s 0 -d -1 -p tcp -e 1040 -c 2 -a 0 -i 53 -k AGT
+ -t 63.188442325 -s 0 -d 2 -p tcp -e 1060 -c 2 -a 0 -i 53 -k RTR 
- -t 63.188442325 -s 0 -d 2 -p tcp -e 1060 -c 2 -a 0 -i 53 -k RTR
h -t 63.188442325 -s 0 -d 2 -p tcp -e 1060 -c 2 -a 0 -i 53 -k RTR
+ -t 63.188442325 -s 0 -d -1 -p tcp -e 1040 -c 2 -a 0 -i 54 -k AGT 
- -t 63.188442325 -s 0 -d -1 -p tcp -e 1040 -c 2 -a 0 -i 54 -k AGT
h -t 63.188442325 -s 0 -d -1 -p tcp -e 1040 -c 2 -a 0 -i 54 -k AGT
+ -t 63.188442325 -s 0 -d 2 -p tcp -e 1060 -c 2 -a 0 -i 54 -k RTR 
- -t 63.188442325 -s 0 -d 2 -p tcp -e 1060 -c 2 -a 0 -i 54 -k RTR
h -t 63.188442325 -s 0 -d 2 -p tcp -e 1060 -c 2 -a 0 -i 54 -k RTR
+ -t 63.198567488 -s 2 -d 1 -p tcp -e 1060 -c 2 -a 0 -i 50 -k RTR 
- -t 63.198567488 -s 2 -d 1 -p tcp -e 1060 -c 2 -a 0 -i 50 -k RTR
h -t 63.198567488 -s 2 -d 1 -p tcp -e 1060 -c 2 -a 0 -i 50 -k RTR
r -t 63.208712807 -s 1 -d 1 -p tcp -e 1060 -c 2 -a 0 -i 50 -k AGT
+ -t 63.208712807 -s 1 -d -1 -p ack -e 40 -c 2 -a 0 -i 55 -k AGT 
- -t 63.208712807 -s 1 -d -1 -p ack -e 40 -c 2 -a 0 -i 55 -k AGT
h -t 63.208712807 -s 1 -d -1 -p ack -e 40 -c 2 -a 0 -i 55 -k AGT
+ -t 63.208712807 -s 1 -d 0 -p ack -e 60 -c 2 -a 0 -i 55 -k RTR 
- -t 63.208712807 -s 1 -d 0 -p ack -e 60 -c 2 -a 0 -i 55 -k RTR
h -t 63.208712807 -s 1 -d 0 -p ack -e 60 -c 2 -a 0 -i 55 -k RTR
r -t 63.210798556 -s 0 -d 0 -p ack -e 60 -c 2 -a 0 -i 55 -k AGT
+ -t 63.210798556 -s 0 -d -1 -p tcp -e 1040 -c 2 -a 0 -i 56 -k AGT 
- -t 63.210798556 -s 0 -d -1 -p tcp -e 1040 -c 2 -a 0 -i 56 -k AGT
h -t 63.210798556 -s 0 -d -1 -p tcp -e 1040 -c 2 -a 0 -i 56 -k AGT
+ -t 63.210798556 -s 0 -d 2 -p tcp -e 1060 -c 2 -a 0 -i 56 -k RTR 
- -t 63.210798556 -s 0 -d 2 -p tcp -e 1060 -c 2 -a 0 -i 56 -k RTR
h -t 63.210798556 -s 0 -d 2 -p tcp -e 1060 -c 2 -a 0 -i 56 -k RTR
+ -t 63.221063718 -s 2 -d 1 -p tcp -e 1060 -c 2 -a 0 -i 51 -k RTR 
- -t 63.221063718 -s 2 -d 1 -p tcp -e 1060 -c 2 -a 0 -i 51 -k RTR
h -t 63.221063718 -s 2 -d 1 -p tcp -e 1060 -c 2 -a 0 -i 51 -k RTR
r -t 63.231309037 -s 1 -d 1 -p tcp -e 1060 -c 2 -a 0 -i 51 -k AGT
+ -t 63.231309037 -s 1 -d -1 -p ack -e 40 -c 2 -a 0 -i 57 -k AGT 
- -t 63.231309037 -s 1 -d -1 -p ack -e 40 -c 2 -a 0 -i 57 -k AGT
h -t 63.231309037 -s 1 -d -1 -p ack -e 40 -c 2 -a 0 -i 57 -k AGT
+ -t 63.231309037 -s 1 -d 0 -p ack -e 60 -c 2 -a 0 -i 57 -k RTR 
- -t 63.231309037 -s 1 -d 0 -p ack -e 60 -c 2 -a 0 -i 57 -k RTR
h -t 63.231309037 -s 1 -d 0 -p ack -e 60 -c 2 -a 0 -i 57 -k RTR
+ -t 63.241594781 -s 2 -d 1 -p tcp -e 1060 -c 2 -a 0 -i 52 -k RTR 
- -t 63.241594781 -s 2 -d 1 -p tcp -e 1060 -c 2 -a 0 -i 52 -k RTR
h -t 63.241594781 -s 2 -d 1 -p tcp -e 1060 -c 2 -a 0 -i 52 -k RTR
r -t 63.243820967 -s 0 -d 0 -p ack -e 60 -c 2 -a 0 -i 57 -k AGT
+ -t 63.243820967 -s 0 -d -1 -p tcp -e 1040 -c 2 -a 0 -i 58 -k AGT 
- -t 63.243820967 -s 0 -d -1 -p tcp -e 1040 -c 2 -a 0 -i 58 -k AGT
h -t 63.243820967 -s 0 -d -1 -p tcp -e 1040 -c 2 -a 0 -i 58 -k AGT
+ -t 63.243820967 -s 0 -d 2 -p tcp -e 1060 -c 2 -a 0 -i 58 -k RTR 
- -t 63.243820967 -s 0 -d 2 -p tcp -e 1060 -c 2 -a 0 -i 58 -k RTR
h -t 63.243820967 -s 0 -d 2 -p tcp -e 1060 -c 2 -a 0 -i 58 -k RTR
+ -t 63.253926129 -s 2 -d 1 -p tcp -e 1060 -c 2 -a 0 -i 53 -k RTR 
- -t 63.253926129 -s 2 -d 1 -p tcp -e 1060 -c 2 -a 0 -i 53 -k RTR
h -t 63.253926129 -s 2 -d 1 -p tcp -e 1060 -c 2 -a 0 -i 53 -k RTR
+ -t 63.263991679 -s 2 -d 1 -p tcp -e 1060 -c 2 -a 0 -i 54 -k RTR 
- -t 63.263991679 -s 2 -d 1 -p tcp -e 1060 -c 2 -a 0 -i 54 -k RTR
h -t 63.263991679 -s 2 -d 1 -p tcp -e 1060 -c 2 -a 0 -i 54 -k RTR
r -t 63.274036995 -s 1 -d 1 -p tcp -e 1060 -c 2 -a 0 -i 52 -k AGT
+ -t 63.274036995 -s 1 -d -1 -p ack -e 40 -c 2 -a 0 -i 59 -k AGT 
- -t 63.274036995 -s 1 -d -1 -p ack -e 40 -c 2 -a 0 -i 59 -k AGT
h -t 63.274036995 -s 1 -d -1 -p ack -e 40 -c 2 -a 0 -i 59 -k AGT
+ -t 63.274036995 -s 1 -d 0 -p ack -e 60 -c 2 -a 0 -i 59 -k RTR 
- -t 63.274036995 -s 1 -d 0 -p ack -e 60 -c 2 -a 0 -i 59 -k RTR
h -t 63.274036995 -s 1 -d 0 -p ack -e 60 -c 2 -a 0 -i 59 -k RTR
r -t 63.276322739 -s 0 -d 0 -p ack -e 60 -c 2 -a 0 -i 59 -k AGT
+ -t 63.276322739 -s 0 -d -1 -p tcp -e 1040 -c 2 -a 0 -i 60 -k AGT 
- -t 63.276322739 -s 0 -d -1 -p tcp -e 1040 -c 2 -a 0 -i 60 -k AGT
h -t 63.276322739 -s 0 -d -1 -p tcp -e 1040 -c 2 -a 0 -i 60 -k AGT
+ -t 63.276322739 -s 0 -d 2 -p tcp -e 1060 -c 2 -a 0 -i 60 -k RTR 
- -t 63.276322739 -s 0 -d 2 -p tcp -e 1060 -c 2 -a 0 -i 60 -k RTR
h -t 63.276322739 -s 0 -d 2 -p tcp -e 1060 -c 2 -a 0 -i 60 -k RTR
r -t 63.286368442 -s 1 -d 1 -p tcp -e 1060 -c 2 -a 0 -i 53 -k AGT
+ -t 63.286368442 -s 1 -d -1 -p ack -e 40 -c 2 -a 0 -i 61 -k AGT 
- -t 63.286368442 -s 1 -d -1 -p ack -e 40 -c 2 -a 0 -i 61 -k AGT
h -t 63.286368442 -s 1 -d -1 -p ack -e 40 -c 2 -a 0 -i 61 -k AGT
+ -t 63.286368442 -s 1 -d 0 -p ack -e 60 -c 2 -a 0 -i 61 -k RTR 
- -t 63.286368442 -s 1 -d 0 -p ack -e 60 -c 2 -a 0 -i 61 -k RTR
h -t 63.286368442 -s 1 -d 0 -p ack -e 60 -c 2 -a 0 -i 61 -k RTR
+ -t 63.296534185 -s 2 -d 1 -p tcp -e 1060 -c 2 -a 0 -i 56 -k RTR 
- -t 63.296534185 -s 2 -d 1 -p tcp -e 1060 -c 2 -a 0 -i 56 -k RTR
h -t 63.296534185 -s 2 -d 1 -p tcp -e 1060 -c 2 -a 0 -i 56 -k RTR
+ -t 63.306559734 -s 2 -d 1 -p tcp -e 1060 -c 2 -a 0 -i 58 -k RTR 
- -t 63.306559734 -s 2 -d 1 -p tcp -e 1060 -c 2 -a 0 -i 58 -k RTR
h -t 63.306559734 -s 2 -d 1 -p tcp -e 1060 -c 2 -a 0 -i 58 -k RTR
r -t 63.308585914 -s 0 -d 0 -p ack -e 60 -c 2 -a 0 -i 61 -k AGT
+ -t 63.308585914 -s 0 -d -1 -p tcp -e 1040 -c 2 -a 0 -i 62 -k AGT 
- -t 63.308585914 -s 0 -d -1 -p tcp -e 1040 -c 2 -a 0 -i 62 -k AGT
h -t 63.308585914 -s 0 -d -1 -p tcp -e 1040 -c 2 -a 0 -i 62 -k AGT
+ -t 63.308585914 -s 0 -d 2 -p tcp -e 1060 -c 2 -a 0 -i 62 -k RTR 
- -t 63.308585914 -s 0 -d 2 -p tcp -e 1060 -c 2 -a 0 -i 62 -k RTR
h -t 63.308585914 -s 0 -d 2 -p tcp -e 1060 -c 2 -a 0 -i 62 -k RTR
r -t 63.318791615 -s 1 -d 1 -p tcp -e 1060 -c 2 -a 0 -i 54 -k AGT
+ -t 63.318791615 -s 1 -d -1 -p ack -e 40 -c 2 -a 0 -i 63 -k AGT 
- -t 63.318791615 -s 1 -d -1 -p ack -e 40 -c 2 -a 0 -i 63 -k AGT
h -t 63.318791615 -s 1 -d -1 -p ack -e 40 -c 2 -a 0 -i 63 -k AGT
+ -t 63.318791615 -s 1 -d 0 -p ack -e 60 -c 2 -a 0 -i 63 -k RTR 
- -t 63.318791615 -s 1 -d 0 -p ack -e 60 -c 2 -a 0 -i 63 -k RTR
h -t 63.318791615 -s 1 -d 0 -p ack -e 60 -c 2 -a 0 -i 63 -k RTR
r -t 63.328857367 -s 1 -d 1 -p tcp -e 1060 -c 2 -a 0 -i 56 -k AGT
+ -t 63.328857367 -s 1 -d -1 -p ack -e 40 -c 2 -a 0 -i 64 -k AGT 
- -t 63.328857367 -s 1 -d -1 -p ack -e 40 -c 2 -a 0 -i 64 -k AGT
h -t 63.328857367 -s 1 -d -1 -p ack -e 40 -c 2 -a 0 -i 64 -k AGT