+ 0.5 0 1 tcp 40 ------- 0 0.1 1.3 0 0
- 0.5 0 1 tcp 40 ------- 0 0.1 1.3 0 0
+ 0.5 0 1 cbr 500 ------- 0 0.0 2.2 0 1
+ 0.5 1 2 tcp 40 ------- 1 1.1 2.3 0 2
- 0.5 1 2 tcp 40 ------- 1 1.1 2.3 0 2
+ 0.5 1 0 cbr 500 ------- 1 1.0 3.2 0 3
- 0.5 1 0 cbr 500 ------- 1 1.0 3.2 0 3
+ 0.5 2 3 tcp 40 ------- 2 2.1 3.3 0 4
- 0.5 2 3 tcp 40 ------- 2 2.1 3.3 0 4
+ 0.5 2 1 cbr 500 ------- 2 2.0 0.2 0 5
- 0.5 2 1 cbr 500 ------- 2 2.0 0.2 0 5
+ 0.5 3 0 tcp 40 ------- 3 3.1 0.3 0 6
- 0.5 3 0 tcp 40 ------- 3 3.1 0.3 0 6
+ 0.5 3 0 cbr 500 ------- 3 3.0 1.2 0 7
- 0.50032 0 1 cbr 500 ------- 0 0.0 2.2 0 1
- 0.50032 3 0 cbr 500 ------- 3 3.0 1.2 0 7
+ 0.505 0 1 cbr 500 ------- 0 0.0 2.2 1 8
- 0.505 0 1 cbr 500 ------- 0 0.0 2.2 1 8
+ 0.505 1 0 cbr 500 ------- 1 1.0 3.2 1 9
- 0.505 1 0 cbr 500 ------- 1 1.0 3.2 1 9
+ 0.505 2 1 cbr 500 ------- 2 2.0 0.2 1 10
- 0.505 2 1 cbr 500 ------- 2 2.0 0.2 1 10
+ 0.505 3 0 cbr 500 ------- 3 3.0 1.2 1 11
- 0.505 3 0 cbr 500 ------- 3 3.0 1.2 1 11
+ 0.51 0 1 cbr 500 ------- 0 0.0 2.2 2 12
- 0.51 0 1 cbr 500 ------- 0 0.0 2.2 2 12
+ 0.51 1 0 cbr 500 ------- 1 1.0 3.2 2 13
- 0.51 1 0 cbr 500 ------- 1 1.0 3.2 2 13
+ 0.51 2 1 cbr 500 ------- 2 2.0 0.2 2 14
- 0.51 2 1 cbr 500 ------- 2 2.0 0.2 2 14
+ 0.51 3 0 cbr 500 ------- 3 3.0 1.2 2 15
- 0.51 3 0 cbr 500 ------- 3 3.0 1.2 2 15
r 0.51032 0 1 tcp 40 ------- 0 0.1 1.3 0 0
+ 0.51032 1 0 ack 40 ------- 0 1.3 0.1 0 16
r 0.51032 1 2 tcp 40 ------- 1 1.1 2.3 0 2
+ 0.51032 2 1 ack 40 ------- 1 2.3 1.1 0 17
r 0.51032 2 3 tcp 40 ------- 2 2.1 3.3 0 4
+ 0.51032 3 2 ack 40 ------- 2 3.3 2.1 0 18
- 0.51032 3 2 ack 40 ------- 2 3.3 2.1 0 18
r 0.51032 3 0 tcp 40 ------- 3 3.1 0.3 0 6
+ 0.51032 0 3 ack 40 ------- 3 0.3 3.1 0 19
- 0.51032 0 3 ack 40 ------- 3 0.3 3.1 0 19
r 0.514 1 0 cbr 500 ------- 1 1.0 3.2 0 3
+ 0.514 0 3 cbr 500 ------- 1 1.0 3.2 0 3
- 0.514 0 3 cbr 500 ------- 1 1.0 3.2 0 3
r 0.514 2 1 cbr 500 ------- 2 2.0 0.2 0 5
+ 0.514 1 0 cbr 500 ------- 2 2.0 0.2 0 5
- 0.514 1 0 ack 40 ------- 0 1.3 0.1 0 16
- 0.514 2 1 ack 40 ------- 1 2.3 1.1 0 17
r 0.51432 0 1 cbr 500 ------- 0 0.0 2.2 0 1
+ 0.51432 1 2 cbr 500 ------- 0 0.0 2.2 0 1
- 0.51432 1 2 cbr 500 ------- 0 0.0 2.2 0 1
r 0.51432 3 0 cbr 500 ------- 3 3.0 1.2 0 7
+ 0.51432 0 1 cbr 500 ------- 3 3.0 1.2 0 7
- 0.51432 0 1 cbr 500 ------- 3 3.0 1.2 0 7
- 0.51432 1 0 cbr 500 ------- 2 2.0 0.2 0 5
+ 0.515 0 1 cbr 500 ------- 0 0.0 2.2 3 20
+ 0.515 1 0 cbr 500 ------- 1 1.0 3.2 3 21
+ 0.515 2 1 cbr 500 ------- 2 2.0 0.2 3 22
- 0.515 2 1 cbr 500 ------- 2 2.0 0.2 3 22
+ 0.515 3 0 cbr 500 ------- 3 3.0 1.2 3 23
- 0.515 3 0 cbr 500 ------- 3 3.0 1.2 3 23
- 0.51832 0 1 cbr 500 ------- 0 0.0 2.2 3 20
- 0.51832 1 0 cbr 500 ------- 1 1.0 3.2 3 21
r 0.519 0 1 cbr 500 ------- 0 0.0 2.2 1 8
+ 0.519 1 2 cbr 500 ------- 0 0.0 2.2 1 8
- 0.519 1 2 cbr 500 ------- 0 0.0 2.2 1 8
r 0.519 1 0 cbr 500 ------- 1 1.0 3.2 1 9
+ 0.519 0 3 cbr 500 ------- 1 1.0 3.2 1 9
- 0.519 0 3 cbr 500 ------- 1 1.0 3.2 1 9
r 0.519 2 1 cbr 500 ------- 2 2.0 0.2 1 10
+ 0.519 1 0 cbr 500 ------- 2 2.0 0.2 1 10
r 0.519 3 0 cbr 500 ------- 3 3.0 1.2 1 11
+ 0.519 0 1 cbr 500 ------- 3 3.0 1.2 1 11
+ 0.52 0 1 cbr 500 ------- 0 0.0 2.2 4 24
+ 0.52 1 0 cbr 500 ------- 1 1.0 3.2 4 25
+ 0.52 2 1 cbr 500 ------- 2 2.0 0.2 4 26
- 0.52 2 1 cbr 500 ------- 2 2.0 0.2 4 26
+ 0.52 3 0 cbr 500 ------- 3 3.0 1.2 4 27
- 0.52 3 0 cbr 500 ------- 3 3.0 1.2 4 27
r 0.52064 3 2 ack 40 ------- 2 3.3 2.1 0 18
+ 0.52064 2 3 tcp 1040 ------- 2 2.1 3.3 1 28
- 0.52064 2 3 tcp 1040 ------- 2 2.1 3.3 1 28
+ 0.52064 2 3 tcp 1040 ------- 2 2.1 3.3 2 29
r 0.52064 0 3 ack 40 ------- 3 0.3 3.1 0 19
+ 0.52064 3 0 tcp 1040 ------- 3 3.1 0.3 1 30
+ 0.52064 3 0 tcp 1040 ------- 3 3.1 0.3 2 31
- 0.52232 0 1 cbr 500 ------- 3 3.0 1.2 1 11
- 0.52232 1 0 cbr 500 ------- 2 2.0 0.2 1 10
r 0.524 0 1 cbr 500 ------- 0 0.0 2.2 2 12
+ 0.524 1 2 cbr 500 ------- 0 0.0 2.2 2 12
- 0.524 1 2 cbr 500 ------- 0 0.0 2.2 2 12
r 0.524 1 0 cbr 500 ------- 1 1.0 3.2 2 13
+ 0.524 0 3 cbr 500 ------- 1 1.0 3.2 2 13
- 0.524 0 3 cbr 500 ------- 1 1.0 3.2 2 13
r 0.524 2 1 cbr 500 ------- 2 2.0 0.2 2 14
+ 0.524 1 0 cbr 500 ------- 2 2.0 0.2 2 14
r 0.524 3 0 cbr 500 ------- 3 3.0 1.2 2 15
+ 0.524 0 1 cbr 500 ------- 3 3.0 1.2 2 15
- 0.524 3 0 tcp 1040 ------- 3 3.1 0.3 1 30
r 0.52432 1 0 ack 40 ------- 0 1.3 0.1 0 16
+ 0.52432 0 1 tcp 1040 ------- 0 0.1 1.3 1 32
+ 0.52432 0 1 tcp 1040 ------- 0 0.1 1.3 2 33
r 0.52432 2 1 ack 40 ------- 1 2.3 1.1 0 17
+ 0.52432 1 2 tcp 1040 ------- 1 1.1 2.3 1 34
+ 0.52432 1 2 tcp 1040 ------- 1 1.1 2.3 2 35
+ 0.525 0 1 cbr 500 ------- 0 0.0 2.2 5 36
+ 0.525 1 0 cbr 500 ------- 1 1.0 3.2 5 37
+ 0.525 2 1 cbr 500 ------- 2 2.0 0.2 5 38
- 0.525 2 1 cbr 500 ------- 2 2.0 0.2 5 38
+ 0.525 3 0 cbr 500 ------- 3 3.0 1.2 5 39
- 0.52632 0 1 cbr 500 ------- 0 0.0 2.2 4 24
- 0.52632 1 0 cbr 500 ------- 1 1.0 3.2 4 25
r 0.528 0 3 cbr 500 ------- 1 1.0 3.2 0 3
- 0.528 1 2 tcp 1040 ------- 1 1.1 2.3 1 34
r 0.52832 1 2 cbr 500 ------- 0 0.0 2.2 0 1
r 0.52832 0 1 cbr 500 ------- 3 3.0 1.2 0 7
r 0.52832 1 0 cbr 500 ------- 2 2.0 0.2 0 5
- 0.52896 2 3 tcp 1040 ------- 2 2.1 3.3 2 29
r 0.529 2 1 cbr 500 ------- 2 2.0 0.2 3 22
+ 0.529 1 0 cbr 500 ------- 2 2.0 0.2 3 22
r 0.529 3 0 cbr 500 ------- 3 3.0 1.2 3 23
+ 0.529 0 1 cbr 500 ------- 3 3.0 1.2 3 23
+ 0.53 0 1 cbr 500 ------- 0 0.0 2.2 6 40
+ 0.53 1 0 cbr 500 ------- 1 1.0 3.2 6 41
+ 0.53 2 1 cbr 500 ------- 2 2.0 0.2 6 42
- 0.53 2 1 cbr 500 ------- 2 2.0 0.2 6 42
+ 0.53 3 0 cbr 500 ------- 3 3.0 1.2 6 43
- 0.53032 0 1 cbr 500 ------- 3 3.0 1.2 2 15
- 0.53032 1 0 cbr 500 ------- 2 2.0 0.2 2 14
r 0.53232 0 1 cbr 500 ------- 0 0.0 2.2 3 20
+ 0.53232 1 2 cbr 500 ------- 0 0.0 2.2 3 20
r 0.53232 1 0 cbr 500 ------- 1 1.0 3.2 3 21
+ 0.53232 0 3 cbr 500 ------- 1 1.0 3.2 3 21
- 0.53232 0 3 cbr 500 ------- 1 1.0 3.2 3 21
- 0.53232 3 0 tcp 1040 ------- 3 3.1 0.3 2 31
r 0.533 1 2 cbr 500 ------- 0 0.0 2.2 1 8
r 0.533 0 3 cbr 500 ------- 1 1.0 3.2 1 9
r 0.534 2 1 cbr 500 ------- 2 2.0 0.2 4 26
+ 0.534 1 0 cbr 500 ------- 2 2.0 0.2 4 26
r 0.534 3 0 cbr 500 ------- 3 3.0 1.2 4 27
+ 0.534 0 1 cbr 500 ------- 3 3.0 1.2 4 27
- 0.53432 0 1 tcp 1040 ------- 0 0.1 1.3 1 32
- 0.53432 1 0 cbr 500 ------- 1 1.0 3.2 5 37
+ 0.535 0 1 cbr 500 ------- 0 0.0 2.2 7 44
+ 0.535 1 0 cbr 500 ------- 1 1.0 3.2 7 45
+ 0.535 2 1 cbr 500 ------- 2 2.0 0.2 7 46
- 0.535 2 1 cbr 500 ------- 2 2.0 0.2 7 46
+ 0.535 3 0 cbr 500 ------- 3 3.0 1.2 7 47
r 0.53632 0 1 cbr 500 ------- 3 3.0 1.2 1 11
r 0.53632 1 0 cbr 500 ------- 2 2.0 0.2 1 10
- 0.53632 1 2 tcp 1040 ------- 1 1.1 2.3 2 35
r 0.538 1 2 cbr 500 ------- 0 0.0 2.2 2 12
r 0.538 0 3 cbr 500 ------- 1 1.0 3.2 2 13
- 0.53832 1 0 cbr 500 ------- 2 2.0 0.2 3 22
r 0.53896 2 3 tcp 1040 ------- 2 2.1 3.3 1 28
+ 0.53896 3 2 ack 40 ------- 2 3.3 2.1 1 48
- 0.53896 3 2 ack 40 ------- 2 3.3 2.1 1 48
r 0.539 2 1 cbr 500 ------- 2 2.0 0.2 5 38
+ 0.539 1 0 cbr 500 ------- 2 2.0 0.2 5 38
+ 0.54 0 1 cbr 500 ------- 0 0.0 2.2 8 49
+ 0.54 1 0 cbr 500 ------- 1 1.0 3.2 8 50
+ 0.54 2 1 cbr 500 ------- 2 2.0 0.2 8 51
- 0.54 2 1 cbr 500 ------- 2 2.0 0.2 8 51
+ 0.54 3 0 cbr 500 ------- 3 3.0 1.2 8 52
r 0.54032 0 1 cbr 500 ------- 0 0.0 2.2 4 24
+ 0.54032 1 2 cbr 500 ------- 0 0.0 2.2 4 24
r 0.54032 1 0 cbr 500 ------- 1 1.0 3.2 4 25
+ 0.54032 0 3 cbr 500 ------- 1 1.0 3.2 4 25
- 0.54032 0 3 cbr 500 ------- 1 1.0 3.2 4 25
- 0.54064 3 0 cbr 500 ------- 3 3.0 1.2 5 39
r 0.54232 3 0 tcp 1040 ------- 3 3.1 0.3 1 30
+ 0.54232 0 3 ack 40 ------- 3 0.3 3.1 1 53
- 0.54232 1 0 cbr 500 ------- 1 1.0 3.2 6 41
- 0.54264 0 1 tcp 1040 ------- 0 0.1 1.3 2 33
r 0.544 2 1 cbr 500 ------- 2 2.0 0.2 6 42
+ 0.544 1 0 cbr 500 ------- 2 2.0 0.2 6 42
r 0.54432 0 1 cbr 500 ------- 3 3.0 1.2 2 15
r 0.54432 1 0 cbr 500 ------- 2 2.0 0.2 2 14
- 0.54432 0 3 ack 40 ------- 3 0.3 3.1 1 53
- 0.54464 1 2 cbr 500 ------- 0 0.0 2.2 3 20
- 0.54464 3 0 cbr 500 ------- 3 3.0 1.2 6 43
+ 0.545 0 1 cbr 500 ------- 0 0.0 2.2 9 54
+ 0.545 1 0 cbr 500 ------- 1 1.0 3.2 9 55
+ 0.545 2 1 cbr 500 ------- 2 2.0 0.2 9 56
- 0.545 2 1 cbr 500 ------- 2 2.0 0.2 9 56
+ 0.545 3 0 cbr 500 ------- 3 3.0 1.2 9 57
r 0.54632 1 2 tcp 1040 ------- 1 1.1 2.3 1 34
+ 0.54632 2 1 ack 40 ------- 1 2.3 1.1 1 58
r 0.54632 0 3 cbr 500 ------- 1 1.0 3.2 3 21
- 0.54632 1 0 cbr 500 ------- 2 2.0 0.2 4 26
r 0.54728 2 3 tcp 1040 ------- 2 2.1 3.3 2 29
+ 0.54728 3 2 ack 40 ------- 2 3.3 2.1 2 59
- 0.54728 3 2 ack 40 ------- 2 3.3 2.1 2 59
r 0.54832 1 0 cbr 500 ------- 1 1.0 3.2 5 37
+ 0.54832 0 3 cbr 500 ------- 1 1.0 3.2 5 37
- 0.54832 0 3 cbr 500 ------- 1 1.0 3.2 5 37
- 0.54864 1 2 cbr 500 ------- 0 0.0 2.2 4 24
- 0.54864 3 0 cbr 500 ------- 3 3.0 1.2 7 47
r 0.549 2 1 cbr 500 ------- 2 2.0 0.2 7 46
+ 0.549 1 0 cbr 500 ------- 2 2.0 0.2 7 46
- 0.549 2 1 ack 40 ------- 1 2.3 1.1 1 58
r 0.54928 3 2 ack 40 ------- 2 3.3 2.1 1 48
+ 0.54928 2 3 tcp 1040 ------- 2 2.1 3.3 3 60
- 0.54928 2 3 tcp 1040 ------- 2 2.1 3.3 3 60
+ 0.54928 2 3 tcp 1040 ------- 2 2.1 3.3 4 61
+ 0.55 0 1 cbr 500 ------- 0 0.0 2.2 10 62
+ 0.55 1 0 cbr 500 ------- 1 1.0 3.2 10 63
+ 0.55 2 1 cbr 500 ------- 2 2.0 0.2 10 64
- 0.55 2 1 cbr 500 ------- 2 2.0 0.2 10 64
+ 0.55 3 0 cbr 500 ------- 3 3.0 1.2 10 65
- 0.55032 1 0 cbr 500 ------- 1 1.0 3.2 7 45
r 0.55064 3 0 tcp 1040 ------- 3 3.1 0.3 2 31
+ 0.55064 0 3 ack 40 ------- 3 0.3 3.1 2 66
- 0.55096 0 1 cbr 500 ------- 0 0.0 2.2 5 36
r 0.55232 1 0 cbr 500 ------- 2 2.0 0.2 3 22
- 0.55232 0 3 ack 40 ------- 3 0.3 3.1 2 66
r 0.55264 0 1 tcp 1040 ------- 0 0.1 1.3 1 32
+ 0.55264 1 0 ack 40 ------- 0 1.3 0.1 1 67
- 0.55264 3 0 cbr 500 ------- 3 3.0 1.2 8 52
r 0.554 2 1 cbr 500 ------- 2 2.0 0.2 8 51
+ 0.554 1 0 cbr 500 ------- 2 2.0 0.2 8 51
r 0.55432 0 3 cbr 500 ------- 1 1.0 3.2 4 25
- 0.55432 1 0 cbr 500 ------- 2 2.0 0.2 5 38
r 0.55464 1 2 tcp 1040 ------- 1 1.1 2.3 2 35
+ 0.55464 2 1 ack 40 ------- 1 2.3 1.1 2 68
- 0.55464 2 1 ack 40 ------- 1 2.3 1.1 2 68
r 0.55464 3 0 cbr 500 ------- 3 3.0 1.2 5 39
+ 0.55464 0 1 cbr 500 ------- 3 3.0 1.2 5 39
r 0.55464 0 3 ack 40 ------- 3 0.3 3.1 1 53
+ 0.55464 3 0 tcp 1040 ------- 3 3.1 0.3 3 69
+ 0.55464 3 0 tcp 1040 ------- 3 3.1 0.3 4 70
- 0.55496 0 1 cbr 500 ------- 3 3.0 1.2 3 23
+ 0.555 0 1 cbr 500 ------- 0 0.0 2.2 11 71
+ 0.555 1 0 cbr 500 ------- 1 1.0 3.2 11 72
+ 0.555 2 1 cbr 500 ------- 2 2.0 0.2 11 73
- 0.555 2 1 cbr 500 ------- 2 2.0 0.2 11 73
+ 0.555 3 0 cbr 500 ------- 3 3.0 1.2 11 74
r 0.55632 1 0 cbr 500 ------- 1 1.0 3.2 6 41
+ 0.55632 0 3 cbr 500 ------- 1 1.0 3.2 6 41
- 0.55632 0 3 cbr 500 ------- 1 1.0 3.2 6 41
- 0.55664 3 0 cbr 500 ------- 3 3.0 1.2 9 57
r 0.5576 3 2 ack 40 ------- 2 3.3 2.1 2 59
+ 0.5576 2 3 tcp 1040 ------- 2 2.1 3.3 5 75
+ 0.5576 2 3 tcp 1040 ------- 2 2.1 3.3 6 76
- 0.5576 2 3 tcp 1040 ------- 2 2.1 3.3 4 61
- 0.55832 1 0 cbr 500 ------- 1 1.0 3.2 8 50
r 0.55864 1 2 cbr 500 ------- 0 0.0 2.2 3 20
r 0.55864 3 0 cbr 500 ------- 3 3.0 1.2 6 43
+ 0.55864 0 1 cbr 500 ------- 3 3.0 1.2 6 43
- 0.55896 0 1 cbr 500 ------- 0 0.0 2.2 6 40
r 0.559 2 1 cbr 500 ------- 2 2.0 0.2 9 56
+ 0.559 1 0 cbr 500 ------- 2 2.0 0.2 9 56
r 0.55932 2 1 ack 40 ------- 1 2.3 1.1 1 58
+ 0.55932 1 2 tcp 1040 ------- 1 1.1 2.3 3 77
- 0.55932 1 2 tcp 1040 ------- 1 1.1 2.3 3 77
+ 0.55932 1 2 tcp 1040 ------- 1 1.1 2.3 4 78
+ 0.56 0 1 cbr 500 ------- 0 0.0 2.2 12 79
+ 0.56 1 0 cbr 500 ------- 1 1.0 3.2 12 80
+ 0.56 2 1 cbr 500 ------- 2 2.0 0.2 12 81
- 0.56 2 1 cbr 500 ------- 2 2.0 0.2 12 81
+ 0.56 3 0 cbr 500 ------- 3 3.0 1.2 12 82
r 0.56032 1 0 cbr 500 ------- 2 2.0 0.2 4 26
- 0.56064 3 0 cbr 500 ------- 3 3.0 1.2 10 65
r 0.56096 0 1 tcp 1040 ------- 0 0.1 1.3 2 33
+ 0.56096 1 0 ack 40 ------- 0 1.3 0.1 2 83
r 0.56232 0 3 cbr 500 ------- 1 1.0 3.2 5 37
- 0.56232 1 0 cbr 500 ------- 2 2.0 0.2 6 42
r 0.56264 1 2 cbr 500 ------- 0 0.0 2.2 4 24
r 0.56264 3 0 cbr 500 ------- 3 3.0 1.2 7 47
+ 0.56264 0 1 cbr 500 ------- 3 3.0 1.2 7 47
r 0.56264 0 3 ack 40 ------- 3 0.3 3.1 2 66
+ 0.56264 3 0 tcp 1040 ------- 3 3.1 0.3 5 84
+ 0.56264 3 0 tcp 1040 ------- 3 3.1 0.3 6 85
- 0.56296 0 1 cbr 500 ------- 3 3.0 1.2 4 27
r 0.564 2 1 cbr 500 ------- 2 2.0 0.2 10 64
+ 0.564 1 0 cbr 500 ------- 2 2.0 0.2 10 64
r 0.56432 1 0 cbr 500 ------- 1 1.0 3.2 7 45
+ 0.56432 0 3 cbr 500 ------- 1 1.0 3.2 7 45
- 0.56432 0 3 cbr 500 ------- 1 1.0 3.2 7 45
- 0.56464 3 0 tcp 1040 ------- 3 3.1 0.3 3 69
r 0.56496 0 1 cbr 500 ------- 0 0.0 2.2 5 36
+ 0.56496 1 2 cbr 500 ------- 0 0.0 2.2 5 36
r 0.56496 2 1 ack 40 ------- 1 2.3 1.1 2 68
+ 0.56496 1 2 tcp 1040 ------- 1 1.1 2.3 5 86
+ 0.56496 1 2 tcp 1040 ------- 1 1.1 2.3 6 87
+ 0.565 0 1 cbr 500 ------- 0 0.0 2.2 13 88
+ 0.565 1 0 cbr 500 ------- 1 1.0 3.2 13 89
+ 0.565 2 1 cbr 500 ------- 2 2.0 0.2 13 90
- 0.565 2 1 cbr 500 ------- 2 2.0 0.2 13 90
+ 0.565 3 0 cbr 500 ------- 3 3.0 1.2 13 91
- 0.56592 2 3 tcp 1040 ------- 2 2.1 3.3 5 75
- 0.56632 1 0 cbr 500 ------- 1 1.0 3.2 9 55
r 0.56664 3 0 cbr 500 ------- 3 3.0 1.2 8 52
+ 0.56664 0 1 cbr 500 ------- 3 3.0 1.2 8 52
- 0.56696 0 1 cbr 500 ------- 0 0.0 2.2 7 44
r 0.5676 2 3 tcp 1040 ------- 2 2.1 3.3 3 60
+ 0.5676 3 2 ack 40 ------- 2 3.3 2.1 3 92
- 0.5676 3 2 ack 40 ------- 2 3.3 2.1 3 92
- 0.56764 1 2 tcp 1040 ------- 1 1.1 2.3 4 78
r 0.56832 1 0 cbr 500 ------- 2 2.0 0.2 5 38
r 0.56896 0 1 cbr 500 ------- 3 3.0 1.2 3 23
r 0.569 2 1 cbr 500 ------- 2 2.0 0.2 11 73
+ 0.569 1 0 cbr 500 ------- 2 2.0 0.2 11 73
+ 0.57 0 1 cbr 500 ------- 0 0.0 2.2 14 93
+ 0.57 1 0 cbr 500 ------- 1 1.0 3.2 14 94
+ 0.57 2 1 cbr 500 ------- 2 2.0 0.2 14 95
- 0.57 2 1 cbr 500 ------- 2 2.0 0.2 14 95
+ 0.57 3 0 cbr 500 ------- 3 3.0 1.2 14 96
r 0.57032 0 3 cbr 500 ------- 1 1.0 3.2 6 41
- 0.57032 1 0 cbr 500 ------- 2 2.0 0.2 7 46
r 0.57064 3 0 cbr 500 ------- 3 3.0 1.2 9 57
+ 0.57064 0 1 cbr 500 ------- 3 3.0 1.2 9 57
- 0.57096 0 1 cbr 500 ------- 0 0.0 2.2 8 49
r 0.57232 1 0 cbr 500 ------- 1 1.0 3.2 8 50
+ 0.57232 0 3 cbr 500 ------- 1 1.0 3.2 8 50
- 0.57232 0 3 cbr 500 ------- 1 1.0 3.2 8 50
r 0.57296 0 1 cbr 500 ------- 0 0.0 2.2 6 40
+ 0.57296 1 2 cbr 500 ------- 0 0.0 2.2 6 40
- 0.57296 3 0 tcp 1040 ------- 3 3.1 0.3 4 70
r 0.574 2 1 cbr 500 ------- 2 2.0 0.2 12 81
+ 0.574 1 0 cbr 500 ------- 2 2.0 0.2 12 81
- 0.57424 2 3 tcp 1040 ------- 2 2.1 3.3 6 76
- 0.57432 1 0 cbr 500 ------- 1 1.0 3.2 10 63
r 0.57464 3 0 cbr 500 ------- 3 3.0 1.2 10 65
+ 0.57464 0 1 cbr 500 ------- 3 3.0 1.2 10 65
- 0.57496 0 1 cbr 500 ------- 0 0.0 2.2 9 54
+ 0.575 0 1 cbr 500 ------- 0 0.0 2.2 15 97
+ 0.575 1 0 cbr 500 ------- 1 1.0 3.2 15 98
+ 0.575 2 1 cbr 500 ------- 2 2.0 0.2 15 99
- 0.575 2 1 cbr 500 ------- 2 2.0 0.2 15 99
+ 0.575 3 0 cbr 500 ------- 3 3.0 1.2 15 100
r 0.57592 2 3 tcp 1040 ------- 2 2.1 3.3 4 61
+ 0.57592 3 2 ack 40 ------- 2 3.3 2.1 4 101
- 0.57592 3 2 ack 40 ------- 2 3.3 2.1 4 101
- 0.57596 1 2 cbr 500 ------- 0 0.0 2.2 5 36
r 0.57632 1 0 cbr 500 ------- 2 2.0 0.2 6 42
r 0.57696 0 1 cbr 500 ------- 3 3.0 1.2 4 27
r 0.57764 1 2 tcp 1040 ------- 1 1.1 2.3 3 77
+ 0.57764 2 1 ack 40 ------- 1 2.3 1.1 3 102
r 0.57792 3 2 ack 40 ------- 2 3.3 2.1 3 92
+ 0.57792 2 3 tcp 1040 ------- 2 2.1 3.3 7 103
+ 0.57792 2 3 tcp 1040 ------- 2 2.1 3.3 8 104
r 0.57832 0 3 cbr 500 ------- 1 1.0 3.2 7 45
- 0.57832 1 0 ack 40 ------- 0 1.3 0.1 1 67
- 0.57864 1 0 cbr 500 ------- 2 2.0 0.2 8 51
- 0.57896 0 1 cbr 500 ------- 0 0.0 2.2 10 62
r 0.579 2 1 cbr 500 ------- 2 2.0 0.2 13 90
+ 0.579 1 0 cbr 500 ------- 2 2.0 0.2 13 90
- 0.579 2 1 ack 40 ------- 1 2.3 1.1 3 102
- 0.57996 1 2 tcp 1040 ------- 1 1.1 2.3 5 86
+ 0.58 0 1 cbr 500 ------- 0 0.0 2.2 16 105
+ 0.58 1 0 cbr 500 ------- 1 1.0 3.2 16 106
+ 0.58 2 1 cbr 500 ------- 2 2.0 0.2 16 107
- 0.58 2 1 cbr 500 ------- 2 2.0 0.2 16 107
+ 0.58 3 0 cbr 500 ------- 3 3.0 1.2 16 108
r 0.58032 1 0 cbr 500 ------- 1 1.0 3.2 9 55
+ 0.58032 0 3 cbr 500 ------- 1 1.0 3.2 9 55
- 0.58032 0 3 cbr 500 ------- 1 1.0 3.2 9 55
r 0.58096 0 1 cbr 500 ------- 0 0.0 2.2 7 44
+ 0.58096 1 2 cbr 500 ------- 0 0.0 2.2 7 44
- 0.58128 3 0 cbr 500 ------- 3 3.0 1.2 11 74
- 0.58256 2 3 tcp 1040 ------- 2 2.1 3.3 7 103
- 0.58264 1 0 cbr 500 ------- 1 1.0 3.2 11 72
r 0.58296 3 0 tcp 1040 ------- 3 3.1 0.3 3 69
+ 0.58296 0 3 ack 40 ------- 3 0.3 3.1 3 109
- 0.58296 0 1 cbr 500 ------- 3 3.0 1.2 5 39
r 0.584 2 1 cbr 500 ------- 2 2.0 0.2 14 95
+ 0.584 1 0 cbr 500 ------- 2 2.0 0.2 14 95
r 0.58424 2 3 tcp 1040 ------- 2 2.1 3.3 5 75
+ 0.58424 3 2 ack 40 ------- 2 3.3 2.1 5 110
- 0.58424 3 2 ack 40 ------- 2 3.3 2.1 5 110
r 0.58432 1 0 cbr 500 ------- 2 2.0 0.2 7 46
- 0.58432 0 3 ack 40 ------- 3 0.3 3.1 3 109
r 0.58496 0 1 cbr 500 ------- 0 0.0 2.2 8 49
+ 0.58496 1 2 cbr 500 ------- 0 0.0 2.2 8 49
+ 0.585 0 1 cbr 500 ------- 0 0.0 2.2 17 111
+ 0.585 1 0 cbr 500 ------- 1 1.0 3.2 17 112
+ 0.585 2 1 cbr 500 ------- 2 2.0 0.2 17 113
- 0.585 2 1 cbr 500 ------- 2 2.0 0.2 17 113
+ 0.585 3 0 cbr 500 ------- 3 3.0 1.2 17 114
- 0.58528 3 0 cbr 500 ------- 3 3.0 1.2 12 82
r 0.58596 1 2 tcp 1040 ------- 1 1.1 2.3 4 78
+ 0.58596 2 1 ack 40 ------- 1 2.3 1.1 4 115
r 0.58624 3 2 ack 40 ------- 2 3.3 2.1 4 101
+ 0.58624 2 3 tcp 1040 ------- 2 2.1 3.3 9 116
+ 0.58624 2 3 tcp 1040 ------- 2 2.1 3.3 10 117
r 0.58632 0 3 cbr 500 ------- 1 1.0 3.2 8 50
- 0.58664 1 0 cbr 500 ------- 2 2.0 0.2 9 56
- 0.58696 0 1 cbr 500 ------- 0 0.0 2.2 11 71
- 0.58828 1 2 tcp 1040 ------- 1 1.1 2.3 6 87
r 0.58832 1 0 cbr 500 ------- 1 1.0 3.2 10 63
+ 0.58832 0 3 cbr 500 ------- 1 1.0 3.2 10 63
- 0.58832 0 3 cbr 500 ------- 1 1.0 3.2 10 63
r 0.58864 1 0 ack 40 ------- 0 1.3 0.1 1 67
+ 0.58864 0 1 tcp 1040 ------- 0 0.1 1.3 3 118
+ 0.58864 0 1 tcp 1040 ------- 0 0.1 1.3 4 119
r 0.58896 0 1 cbr 500 ------- 0 0.0 2.2 9 54
+ 0.58896 1 2 cbr 500 ------- 0 0.0 2.2 9 54
r 0.589 2 1 cbr 500 ------- 2 2.0 0.2 15 99
+ 0.589 1 0 cbr 500 ------- 2 2.0 0.2 15 99
- 0.589 2 1 ack 40 ------- 1 2.3 1.1 4 115
- 0.58928 3 0 tcp 1040 ------- 3 3.1 0.3 5 84
r 0.58932 2 1 ack 40 ------- 1 2.3 1.1 3 102
+ 0.58932 1 2 tcp 1040 ------- 1 1.1 2.3 7 120
+ 0.58932 1 2 tcp 1040 ------- 1 1.1 2.3 8 121
r 0.58996 1 2 cbr 500 ------- 0 0.0 2.2 5 36
+ 0.59 0 1 cbr 500 ------- 0 0.0 2.2 18 122
+ 0.59 1 0 cbr 500 ------- 1 1.0 3.2 18 123
+ 0.59 2 1 cbr 500 ------- 2 2.0 0.2 18 124
- 0.59 2 1 cbr 500 ------- 2 2.0 0.2 18 124
+ 0.59 3 0 cbr 500 ------- 3 3.0 1.2 18 125
- 0.59064 1 0 cbr 500 ------- 1 1.0 3.2 12 80
- 0.59088 2 3 tcp 1040 ------- 2 2.1 3.3 8 104
- 0.59096 0 1 cbr 500 ------- 3 3.0 1.2 6 43
r 0.59128 3 0 tcp 1040 ------- 3 3.1 0.3 4 70
+ 0.59128 0 3 ack 40 ------- 3 0.3 3.1 4 126
- 0.59232 0 3 ack 40 ------- 3 0.3 3.1 4 126
r 0.59256 2 3 tcp 1040 ------- 2 2.1 3.3 6 76
+ 0.59256 3 2 ack 40 ------- 2 3.3 2.1 6 127
- 0.59256 3 2 ack 40 ------- 2 3.3 2.1 6 127
r 0.59264 1 0 cbr 500 ------- 2 2.0 0.2 8 51
r 0.59296 0 1 cbr 500 ------- 0 0.0 2.2 10 62
+ 0.59296 1 2 cbr 500 ------- 0 0.0 2.2 10 62
r 0.594 2 1 cbr 500 ------- 2 2.0 0.2 16 107
+ 0.594 1 0 cbr 500 ------- 2 2.0 0.2 16 107
r 0.59432 0 3 cbr 500 ------- 1 1.0 3.2 9 55
r 0.59456 3 2 ack 40 ------- 2 3.3 2.1 5 110
+ 0.59456 2 3 tcp 1040 ------- 2 2.1 3.3 11 128
+ 0.59456 2 3 tcp 1040 ------- 2 2.1 3.3 12 129
r 0.59464 0 3 ack 40 ------- 3 0.3 3.1 3 109
+ 0.59464 3 0 tcp 1040 ------- 3 3.1 0.3 7 130
+ 0.59464 3 0 tcp 1040 ------- 3 3.1 0.3 8 131
- 0.59464 1 0 ack 40 ------- 0 1.3 0.1 2 83
- 0.59496 0 1 cbr 500 ------- 0 0.0 2.2 12 79
- 0.59496 1 0 cbr 500 ------- 2 2.0 0.2 10 64
+ 0.595 0 1 cbr 500 ------- 0 0.0 2.2 19 132
+ 0.595 1 0 cbr 500 ------- 1 1.0 3.2 19 133
+ 0.595 2 1 cbr 500 ------- 2 2.0 0.2 19 134
- 0.595 2 1 cbr 500 ------- 2 2.0 0.2 19 134
+ 0.595 3 0 cbr 500 ------- 3 3.0 1.2 19 135
r 0.59528 3 0 cbr 500 ------- 3 3.0 1.2 11 74
+ 0.59528 0 1 cbr 500 ------- 3 3.0 1.2 11 74
- 0.5966 1 2 cbr 500 ------- 0 0.0 2.2 6 40
r 0.59664 1 0 cbr 500 ------- 1 1.0 3.2 11 72
+ 0.59664 0 3 cbr 500 ------- 1 1.0 3.2 11 72
- 0.59664 0 3 cbr 500 ------- 1 1.0 3.2 11 72
r 0.59696 0 1 cbr 500 ------- 3 3.0 1.2 5 39
- 0.5976 3 0 tcp 1040 ------- 3 3.1 0.3 6 85
r 0.59828 1 2 tcp 1040 ------- 1 1.1 2.3 5 86
+ 0.59828 2 1 ack 40 ------- 1 2.3 1.1 5 136
- 0.59896 0 1 cbr 500 ------- 3 3.0 1.2 7 47
- 0.59896 1 0 cbr 500 ------- 1 1.0 3.2 13 89
r 0.599 2 1 cbr 500 ------- 2 2.0 0.2 17 113
+ 0.599 1 0 cbr 500 ------- 2 2.0 0.2 17 113
- 0.599 2 1 ack 40 ------- 1 2.3 1.1 5 136
- 0.5992 2 3 tcp 1040 ------- 2 2.1 3.3 9 116
r 0.59928 3 0 cbr 500 ------- 3 3.0 1.2 12 82
+ 0.59928 0 1 cbr 500 ------- 3 3.0 1.2 12 82
r 0.59932 2 1 ack 40 ------- 1 2.3 1.1 4 115
+ 0.59932 1 2 tcp 1040 ------- 1 1.1 2.3 9 137
+ 0.59932 1 2 tcp 1040 ------- 1 1.1 2.3 10 138
+ 0.6 0 1 cbr 500 ------- 0 0.0 2.2 20 139
+ 0.6 1 0 cbr 500 ------- 1 1.0 3.2 20 140
+ 0.6 2 1 cbr 500 ------- 2 2.0 0.2 20 141
- 0.6 2 1 cbr 500 ------- 2 2.0 0.2 20 141
+ 0.6 3 0 cbr 500 ------- 3 3.0 1.2 20 142
- 0.6006 1 2 cbr 500 ------- 0 0.0 2.2 7 44
r 0.60064 1 0 cbr 500 ------- 2 2.0 0.2 9 56
r 0.60088 2 3 tcp 1040 ------- 2 2.1 3.3 7 103
+ 0.60088 3 2 ack 40 ------- 2 3.3 2.1 7 143
- 0.60088 3 2 ack 40 ------- 2 3.3 2.1 7 143
r 0.60096 0 1 cbr 500 ------- 0 0.0 2.2 11 71
+ 0.60096 1 2 cbr 500 ------- 0 0.0 2.2 11 71
r 0.60232 0 3 cbr 500 ------- 1 1.0 3.2 10 63
r 0.60264 0 3 ack 40 ------- 3 0.3 3.1 4 126
+ 0.60264 3 0 tcp 1040 ------- 3 3.1 0.3 9 144
+ 0.60264 3 0 tcp 1040 ------- 3 3.1 0.3 10 145
r 0.60288 3 2 ack 40 ------- 2 3.3 2.1 6 127
+ 0.60288 2 3 tcp 1040 ------- 2 2.1 3.3 13 146
+ 0.60288 2 3 tcp 1040 ------- 2 2.1 3.3 14 147
- 0.60296 0 1 cbr 500 ------- 0 0.0 2.2 13 88
- 0.60296 1 0 cbr 500 ------- 2 2.0 0.2 11 73
r 0.604 2 1 cbr 500 ------- 2 2.0 0.2 18 124
+ 0.604 1 0 cbr 500 ------- 2 2.0 0.2 18 124
- 0.6046 1 2 cbr 500 ------- 0 0.0 2.2 8 49
r 0.60464 1 0 cbr 500 ------- 1 1.0 3.2 12 80
+ 0.60464 0 3 cbr 500 ------- 1 1.0 3.2 12 80
- 0.60464 0 3 cbr 500 ------- 1 1.0 3.2 12 80
r 0.60496 0 1 cbr 500 ------- 3 3.0 1.2 6 43
r 0.60496 1 0 ack 40 ------- 0 1.3 0.1 2 83
+ 0.60496 0 1 tcp 1040 ------- 0 0.1 1.3 5 148
+ 0.60496 0 1 tcp 1040 ------- 0 0.1 1.3 6 149
+ 0.605 0 1 cbr 500 ------- 0 0.0 2.2 21 150
+ 0.605 1 0 cbr 500 ------- 1 1.0 3.2 21 151
+ 0.605 2 1 cbr 500 ------- 2 2.0 0.2 21 152
- 0.605 2 1 cbr 500 ------- 2 2.0 0.2 21 152
+ 0.605 3 0 cbr 500 ------- 3 3.0 1.2 21 153
- 0.60592 3 0 cbr 500 ------- 3 3.0 1.2 13 91
r 0.6066 1 2 tcp 1040 ------- 1 1.1 2.3 6 87
+ 0.6066 2 1 ack 40 ------- 1 2.3 1.1 6 154
- 0.60696 0 1 cbr 500 ------- 3 3.0 1.2 8 52
- 0.60696 1 0 cbr 500 ------- 1 1.0 3.2 14 94
- 0.60752 2 3 tcp 1040 ------- 2 2.1 3.3 10 117
r 0.6076 3 0 tcp 1040 ------- 3 3.1 0.3 5 84
+ 0.6076 0 3 ack 40 ------- 3 0.3 3.1 5 155
- 0.6086 1 2 cbr 500 ------- 0 0.0 2.2 9 54
- 0.60864 0 3 ack 40 ------- 3 0.3 3.1 5 155
r 0.60896 0 1 cbr 500 ------- 0 0.0 2.2 12 79
+ 0.60896 1 2 cbr 500 ------- 0 0.0 2.2 12 79
r 0.60896 1 0 cbr 500 ------- 2 2.0 0.2 10 64
r 0.609 2 1 cbr 500 ------- 2 2.0 0.2 19 134
+ 0.609 1 0 cbr 500 ------- 2 2.0 0.2 19 134
- 0.609 2 1 ack 40 ------- 1 2.3 1.1 6 154
r 0.6092 2 3 tcp 1040 ------- 2 2.1 3.3 8 104
+ 0.6092 3 2 ack 40 ------- 2 3.3 2.1 8 156
- 0.6092 3 2 ack 40 ------- 2 3.3 2.1 8 156
r 0.60932 2 1 ack 40 ------- 1 2.3 1.1 5 136
+ 0.60932 1 2 tcp 1040 ------- 1 1.1 2.3 11 157
+ 0.60932 1 2 tcp 1040 ------- 1 1.1 2.3 12 158
- 0.60992 3 0 cbr 500 ------- 3 3.0 1.2 14 96
+ 0.61 0 1 cbr 500 ------- 0 0.0 2.2 22 159
+ 0.61 1 0 cbr 500 ------- 1 1.0 3.2 22 160
+ 0.61 2 1 cbr 500 ------- 2 2.0 0.2 22 161
- 0.61 2 1 cbr 500 ------- 2 2.0 0.2 22 161
+ 0.61 3 0 cbr 500 ------- 3 3.0 1.2 22 162
r 0.6106 1 2 cbr 500 ------- 0 0.0 2.2 6 40
r 0.61064 0 3 cbr 500 ------- 1 1.0 3.2 11 72
- 0.61096 0 1 cbr 500 ------- 0 0.0 2.2 14 93
- 0.61096 1 0 cbr 500 ------- 2 2.0 0.2 12 81
r 0.6112 3 2 ack 40 ------- 2 3.3 2.1 7 143
+ 0.6112 2 3 tcp 1040 ------- 2 2.1 3.3 15 163
+ 0.6112 2 3 tcp 1040 ------- 2 2.1 3.3 16 164
- 0.6126 1 2 tcp 1040 ------- 1 1.1 2.3 7 120
r 0.61296 0 1 cbr 500 ------- 3 3.0 1.2 7 47
r 0.61296 1 0 cbr 500 ------- 1 1.0 3.2 13 89
+ 0.61296 0 3 cbr 500 ------- 1 1.0 3.2 13 89
- 0.61296 0 3 cbr 500 ------- 1 1.0 3.2 13 89
- 0.61392 3 0 cbr 500 ------- 3 3.0 1.2 15 100
r 0.614 2 1 cbr 500 ------- 2 2.0 0.2 20 141
+ 0.614 1 0 cbr 500 ------- 2 2.0 0.2 20 141
r 0.6146 1 2 cbr 500 ------- 0 0.0 2.2 7 44
- 0.61496 0 1 cbr 500 ------- 3 3.0 1.2 9 57
- 0.61496 1 0 cbr 500 ------- 1 1.0 3.2 15 98
+ 0.615 0 1 cbr 500 ------- 0 0.0 2.2 23 165
+ 0.615 1 0 cbr 500 ------- 1 1.0 3.2 23 166
+ 0.615 2 1 cbr 500 ------- 2 2.0 0.2 23 167
- 0.615 2 1 cbr 500 ------- 2 2.0 0.2 23 167
+ 0.615 3 0 cbr 500 ------- 3 3.0 1.2 23 168
- 0.61584 2 3 tcp 1040 ------- 2 2.1 3.3 11 128
r 0.61592 3 0 tcp 1040 ------- 3 3.1 0.3 6 85
+ 0.61592 0 3 ack 40 ------- 3 0.3 3.1 6 169
r 0.61696 0 1 cbr 500 ------- 0 0.0 2.2 13 88
+ 0.61696 1 2 cbr 500 ------- 0 0.0 2.2 13 88
r 0.61696 1 0 cbr 500 ------- 2 2.0 0.2 11 73
- 0.61696 0 3 ack 40 ------- 3 0.3 3.1 6 169
r 0.61752 2 3 tcp 1040 ------- 2 2.1 3.3 9 116
+ 0.61752 3 2 ack 40 ------- 2 3.3 2.1 9 170
- 0.61752 3 2 ack 40 ------- 2 3.3 2.1 9 170
- 0.61792 3 0 cbr 500 ------- 3 3.0 1.2 16 108
r 0.6186 1 2 cbr 500 ------- 0 0.0 2.2 8 49
r 0.61864 0 3 cbr 500 ------- 1 1.0 3.2 12 80
r 0.61896 0 3 ack 40 ------- 3 0.3 3.1 5 155
+ 0.61896 3 0 tcp 1040 ------- 3 3.1 0.3 11 171
+ 0.61896 3 0 tcp 1040 ------- 3 3.1 0.3 12 172
- 0.61896 0 1 cbr 500 ------- 3 3.0 1.2 10 65
- 0.61896 1 0 cbr 500 ------- 2 2.0 0.2 13 90
r 0.619 2 1 cbr 500 ------- 2 2.0 0.2 21 152
+ 0.619 1 0 cbr 500 ------- 2 2.0 0.2 21 152
r 0.61932 2 1 ack 40 ------- 1 2.3 1.1 6 154
+ 0.61932 1 2 tcp 1040 ------- 1 1.1 2.3 13 173
+ 0.61932 1 2 tcp 1040 ------- 1 1.1 2.3 14 174
r 0.61952 3 2 ack 40 ------- 2 3.3 2.1 8 156
+ 0.61952 2 3 tcp 1040 ------- 2 2.1 3.3 17 175
+ 0.61952 2 3 tcp 1040 ------- 2 2.1 3.3 18 176
r 0.61992 3 0 cbr 500 ------- 3 3.0 1.2 13 91
+ 0.61992 0 1 cbr 500 ------- 3 3.0 1.2 13 91
+ 0.62 0 1 cbr 500 ------- 0 0.0 2.2 24 177
+ 0.62 1 0 cbr 500 ------- 1 1.0 3.2 24 178
+ 0.62 2 1 cbr 500 ------- 2 2.0 0.2 24 179
- 0.62 2 1 cbr 500 ------- 2 2.0 0.2 24 179
+ 0.62 3 0 cbr 500 ------- 3 3.0 1.2 24 180
- 0.62092 1 2 tcp 1040 ------- 1 1.1 2.3 8 121
r 0.62096 0 1 cbr 500 ------- 3 3.0 1.2 8 52
r 0.62096 1 0 cbr 500 ------- 1 1.0 3.2 14 94
+ 0.62096 0 3 cbr 500 ------- 1 1.0 3.2 14 94
- 0.62096 0 3 cbr 500 ------- 1 1.0 3.2 14 94
- 0.62192 3 0 cbr 500 ------- 3 3.0 1.2 17 114
r 0.6226 1 2 cbr 500 ------- 0 0.0 2.2 9 54
- 0.62296 0 1 cbr 500 ------- 0 0.0 2.2 15 97
- 0.62296 1 0 cbr 500 ------- 1 1.0 3.2 16 106
r 0.62392 3 0 cbr 500 ------- 3 3.0 1.2 14 96
+ 0.62392 0 1 cbr 500 ------- 3 3.0 1.2 14 96
r 0.624 2 1 cbr 500 ------- 2 2.0 0.2 22 161
+ 0.624 1 0 cbr 500 ------- 2 2.0 0.2 22 161
- 0.62416 2 3 tcp 1040 ------- 2 2.1 3.3 12 129
r 0.62496 0 1 cbr 500 ------- 0 0.0 2.2 14 93
+ 0.62496 1 2 cbr 500 ------- 0 0.0 2.2 14 93
r 0.62496 1 0 cbr 500 ------- 2 2.0 0.2 12 81
+ 0.625 0 1 cbr 500 ------- 0 0.0 2.2 25 181
+ 0.625 1 0 cbr 500 ------- 1 1.0 3.2 25 182
+ 0.625 2 1 cbr 500 ------- 2 2.0 0.2 25 183
- 0.625 2 1 cbr 500 ------- 2 2.0 0.2 25 183
+ 0.625 3 0 cbr 500 ------- 3 3.0 1.2 25 184
r 0.62584 2 3 tcp 1040 ------- 2 2.1 3.3 10 117
+ 0.62584 3 2 ack 40 ------- 2 3.3 2.1 10 185
- 0.62584 3 2 ack 40 ------- 2 3.3 2.1 10 185
- 0.62592 3 0 cbr 500 ------- 3 3.0 1.2 18 125
r 0.62696 0 3 cbr 500 ------- 1 1.0 3.2 13 89
- 0.62696 0 1 cbr 500 ------- 0 0.0 2.2 16 105
- 0.62696 1 0 cbr 500 ------- 2 2.0 0.2 14 95
r 0.62728 0 3 ack 40 ------- 3 0.3 3.1 6 169
+ 0.62728 3 0 tcp 1040 ------- 3 3.1 0.3 13 186
+ 0.62728 3 0 tcp 1040 ------- 3 3.1 0.3 14 187
r 0.62784 3 2 ack 40 ------- 2 3.3 2.1 9 170
+ 0.62784 2 3 tcp 1040 ------- 2 2.1 3.3 19 188
+ 0.62784 2 3 tcp 1040 ------- 2 2.1 3.3 20 189
r 0.62792 3 0 cbr 500 ------- 3 3.0 1.2 15 100
+ 0.62792 0 1 cbr 500 ------- 3 3.0 1.2 15 100
r 0.62896 0 1 cbr 500 ------- 3 3.0 1.2 9 57
r 0.62896 1 0 cbr 500 ------- 1 1.0 3.2 15 98
+ 0.62896 0 3 cbr 500 ------- 1 1.0 3.2 15 98
- 0.62896 0 3 cbr 500 ------- 1 1.0 3.2 15 98
r 0.629 2 1 cbr 500 ------- 2 2.0 0.2 23 167
+ 0.629 1 0 cbr 500 ------- 2 2.0 0.2 23 167
- 0.62924 1 2 cbr 500 ------- 0 0.0 2.2 10 62
- 0.62992 3 0 tcp 1040 ------- 3 3.1 0.3 7 130
+ 0.63 0 1 cbr 500 ------- 0 0.0 2.2 26 190
+ 0.63 1 0 cbr 500 ------- 1 1.0 3.2 26 191
+ 0.63 2 1 cbr 500 ------- 2 2.0 0.2 26 192
- 0.63 2 1 cbr 500 ------- 2 2.0 0.2 26 192
+ 0.63 3 0 cbr 500 ------- 3 3.0 1.2 26 193
r 0.63092 1 2 tcp 1040 ------- 1 1.1 2.3 7 120
+ 0.63092 2 1 ack 40 ------- 1 2.3 1.1 7 194
- 0.63096 0 1 cbr 500 ------- 0 0.0 2.2 17 111
- 0.63096 1 0 cbr 500 ------- 1 1.0 3.2 17 112
r 0.63192 3 0 cbr 500 ------- 3 3.0 1.2 16 108
+ 0.63192 0 1 cbr 500 ------- 3 3.0 1.2 16 108
- 0.63248 2 3 tcp 1040 ------- 2 2.1 3.3 13 146
r 0.63296 0 1 cbr 500 ------- 3 3.0 1.2 10 65
r 0.63296 1 0 cbr 500 ------- 2 2.0 0.2 13 90
- 0.63324 1 2 tcp 1040 ------- 1 1.1 2.3 9 137
r 0.634 2 1 cbr 500 ------- 2 2.0 0.2 24 179
+ 0.634 1 0 cbr 500 ------- 2 2.0 0.2 24 179
- 0.634 2 1 ack 40 ------- 1 2.3 1.1 7 194
r 0.63416 2 3 tcp 1040 ------- 2 2.1 3.3 11 128
+ 0.63416 3 2 ack 40 ------- 2 3.3 2.1 11 195
- 0.63416 3 2 ack 40 ------- 2 3.3 2.1 11 195
r 0.63496 0 3 cbr 500 ------- 1 1.0 3.2 14 94
- 0.63496 0 1 tcp 1040 ------- 0 0.1 1.3 3 118
- 0.63496 1 0 cbr 500 ------- 2 2.0 0.2 15 99
+ 0.635 0 1 cbr 500 ------- 0 0.0 2.2 27 196
+ 0.635 1 0 cbr 500 ------- 1 1.0 3.2 27 197
+ 0.635 2 1 cbr 500 ------- 2 2.0 0.2 27 198
- 0.635 2 1 cbr 500 ------- 2 2.0 0.2 27 198
+ 0.635 3 0 cbr 500 ------- 3 3.0 1.2 27 199
r 0.63592 3 0 cbr 500 ------- 3 3.0 1.2 17 114
+ 0.63592 0 1 cbr 500 ------- 3 3.0 1.2 17 114
r 0.63616 3 2 ack 40 ------- 2 3.3 2.1 10 185
+ 0.63616 2 3 tcp 1040 ------- 2 2.1 3.3 21 200
+ 0.63616 2 3 tcp 1040 ------- 2 2.1 3.3 22 201
r 0.63696 0 1 cbr 500 ------- 0 0.0 2.2 15 97
+ 0.63696 1 2 cbr 500 ------- 0 0.0 2.2 15 97
r 0.63696 1 0 cbr 500 ------- 1 1.0 3.2 16 106
+ 0.63696 0 3 cbr 500 ------- 1 1.0 3.2 16 106
- 0.63696 0 3 cbr 500 ------- 1 1.0 3.2 16 106
- 0.63824 3 0 tcp 1040 ------- 3 3.1 0.3 8 131
- 0.63896 1 0 cbr 500 ------- 1 1.0 3.2 18 123
r 0.639 2 1 cbr 500 ------- 2 2.0 0.2 25 183
+ 0.639 1 0 cbr 500 ------- 2 2.0 0.2 25 183
r 0.63924 1 2 tcp 1040 ------- 1 1.1 2.3 8 121