n -t * -s 0  -x 5 -y 5 -Z 0 -z 30  -v circle -c black
n -t * -s 1  -x 490 -y 285 -Z 0 -z 30  -v circle -c black
n -t * -s 2  -x 150 -y 240 -Z 0 -z 30  -v circle -c black
V -t * -v 1.0a5 -a 0
W -t * -x 500 -y 400
A -t * -n 1 -p 0 -o 0x7fffffff -c 30 -a 1
A -t * -h 1 -m 1073741823 -s 0
n -t 10.000000 -s 0 -x 5.000000 -y 5.000000 -U 2.121320 -V 2.121320 -T 115.494108
+ -t 10.000000000 -s 0 -d -1 -p tcp -e 40 -c 2 -a 0 -i 0 -k AGT 
- -t 10.000000000 -s 0 -d -1 -p tcp -e 40 -c 2 -a 0 -i 0 -k AGT
h -t 10.000000000 -s 0 -d -1 -p tcp -e 40 -c 2 -a 0 -i 0 -k AGT
+ -t 10.000000000 -s 0 -d -1 -p AODV -e 48 -c 2 -a 0 -i 0 -k RTR 
- -t 10.000000000 -s 0 -d -1 -p AODV -e 48 -c 2 -a 0 -i 0 -k RTR
h -t 10.000000000 -s 0 -d -1 -p AODV -e 48 -c 2 -a 0 -i 0 -k RTR
+ -t 12.000000000 -s 0 -d -1 -p AODV -e 48 -c 2 -a 0 -i 0 -k RTR 
- -t 12.000000000 -s 0 -d -1 -p AODV -e 48 -c 2 -a 0 -i 0 -k RTR
h -t 12.000000000 -s 0 -d -1 -p AODV -e 48 -c 2 -a 0 -i 0 -k RTR
+ -t 13.000000000 -s 0 -d -1 -p tcp -e 40 -c 2 -a 0 -i 1 -k AGT 
- -t 13.000000000 -s 0 -d -1 -p tcp -e 40 -c 2 -a 0 -i 1 -k AGT
h -t 13.000000000 -s 0 -d -1 -p tcp -e 40 -c 2 -a 0 -i 1 -k AGT
+ -t 16.000000000 -s 0 -d -1 -p AODV -e 48 -c 2 -a 0 -i 0 -k RTR 
- -t 16.000000000 -s 0 -d -1 -p AODV -e 48 -c 2 -a 0 -i 0 -k RTR
h -t 16.000000000 -s 0 -d -1 -p AODV -e 48 -c 2 -a 0 -i 0 -k RTR
+ -t 19.000000000 -s 0 -d -1 -p tcp -e 40 -c 2 -a 0 -i 2 -k AGT 
- -t 19.000000000 -s 0 -d -1 -p tcp -e 40 -c 2 -a 0 -i 2 -k AGT
h -t 19.000000000 -s 0 -d -1 -p tcp -e 40 -c 2 -a 0 -i 2 -k AGT
n -t 20.000000 -s 1 -x 490.000000 -y 285.000000 -U -5.000000 -V 0.000000 -T 89.000000
+ -t 21.500000000 -s 0 -d -1 -p AODV -e 48 -c 2 -a 0 -i 0 -k RTR 
- -t 21.500000000 -s 0 -d -1 -p AODV -e 48 -c 2 -a 0 -i 0 -k RTR
h -t 21.500000000 -s 0 -d -1 -p AODV -e 48 -c 2 -a 0 -i 0 -k RTR
r -t 21.501148809 -s 2 -d -1 -p AODV -e 48 -c 2 -a 0 -i 0 -k RTR
+ -t 21.507537460 -s 2 -d -1 -p AODV -e 48 -c 2 -a 0 -i 0 -k RTR 
- -t 21.507537460 -s 2 -d -1 -p AODV -e 48 -c 2 -a 0 -i 0 -k RTR
h -t 21.507537460 -s 2 -d -1 -p AODV -e 48 -c 2 -a 0 -i 0 -k RTR
r -t 21.508746269 -s 0 -d -1 -p AODV -e 48 -c 2 -a 0 -i 0 -k RTR
d -t 29.000000000 -s 0 -d -1 -p tcp -e 40 -c 2 -a 0 -i 0 -k RTR
d -t 29.000000000 -s 0 -d -1 -p tcp -e 40 -c 2 -a 0 -i 1 -k RTR
d -t 29.000000000 -s 0 -d -1 -p tcp -e 40 -c 2 -a 0 -i 2 -k RTR
n -t 30.000000 -s 0 -x 47.426407 -y 47.426407 -U 4.317856 -V 2.521135 -T 100.182500
+ -t 31.000000000 -s 0 -d -1 -p tcp -e 40 -c 2 -a 0 -i 3 -k AGT 
- -t 31.000000000 -s 0 -d -1 -p tcp -e 40 -c 2 -a 0 -i 3 -k AGT
h -t 31.000000000 -s 0 -d -1 -p tcp -e 40 -c 2 -a 0 -i 3 -k AGT
+ -t 39.000000000 -s 0 -d -1 -p AODV -e 48 -c 2 -a 0 -i 0 -k RTR 
- -t 39.000000000 -s 0 -d -1 -p AODV -e 48 -c 2 -a 0 -i 0 -k RTR
h -t 39.000000000 -s 0 -d -1 -p AODV -e 48 -c 2 -a 0 -i 0 -k RTR
r -t 39.000988605 -s 2 -d -1 -p AODV -e 48 -c 2 -a 0 -i 0 -k RTR
+ -t 39.007389281 -s 2 -d -1 -p AODV -e 48 -c 2 -a 0 -i 0 -k RTR 
- -t 39.007389281 -s 2 -d -1 -p AODV -e 48 -c 2 -a 0 -i 0 -k RTR
h -t 39.007389281 -s 2 -d -1 -p AODV -e 48 -c 2 -a 0 -i 0 -k RTR
r -t 39.008697886 -s 0 -d -1 -p AODV -e 48 -c 2 -a 0 -i 0 -k RTR
r -t 39.008698112 -s 1 -d -1 -p AODV -e 48 -c 2 -a 0 -i 0 -k RTR
+ -t 39.008698112 -s 1 -d 2 -p AODV -e 44 -c 2 -a 0 -i 0 -k RTR 
- -t 39.008698112 -s 1 -d 2 -p AODV -e 44 -c 2 -a 0 -i 0 -k RTR
h -t 39.008698112 -s 1 -d 2 -p AODV -e 44 -c 2 -a 0 -i 0 -k RTR
+ -t 39.013381923 -s 2 -d 0 -p AODV -e 44 -c 2 -a 0 -i 0 -k RTR 
- -t 39.013381923 -s 2 -d 0 -p AODV -e 44 -c 2 -a 0 -i 0 -k RTR
h -t 39.013381923 -s 2 -d 0 -p AODV -e 44 -c 2 -a 0 -i 0 -k RTR
+ -t 39.018253155 -s 0 -d 2 -p tcp -e 40 -c 2 -a 0 -i 3 -k RTR 
- -t 39.018253155 -s 0 -d 2 -p tcp -e 40 -c 2 -a 0 -i 3 -k RTR
h -t 39.018253155 -s 0 -d 2 -p tcp -e 40 -c 2 -a 0 -i 3 -k RTR
+ -t 39.020138968 -s 2 -d 1 -p tcp -e 40 -c 2 -a 0 -i 3 -k RTR 
- -t 39.020138968 -s 2 -d 1 -p tcp -e 40 -c 2 -a 0 -i 3 -k RTR
h -t 39.020138968 -s 2 -d 1 -p tcp -e 40 -c 2 -a 0 -i 3 -k RTR
r -t 39.022365458 -s 1 -d 1 -p tcp -e 40 -c 2 -a 0 -i 3 -k AGT
+ -t 39.022365458 -s 1 -d -1 -p ack -e 40 -c 2 -a 0 -i 4 -k AGT 
- -t 39.022365458 -s 1 -d -1 -p ack -e 40 -c 2 -a 0 -i 4 -k AGT
h -t 39.022365458 -s 1 -d -1 -p ack -e 40 -c 2 -a 0 -i 4 -k AGT
+ -t 39.022365458 -s 1 -d 2 -p ack -e 40 -c 2 -a 0 -i 4 -k RTR 
- -t 39.022365458 -s 1 -d 2 -p ack -e 40 -c 2 -a 0 -i 4 -k RTR
h -t 39.022365458 -s 1 -d 2 -p ack -e 40 -c 2 -a 0 -i 4 -k RTR
+ -t 39.024771948 -s 2 -d 0 -p ack -e 40 -c 2 -a 0 -i 4 -k RTR 
- -t 39.024771948 -s 2 -d 0 -p ack -e 40 -c 2 -a 0 -i 4 -k RTR
h -t 39.024771948 -s 2 -d 0 -p ack -e 40 -c 2 -a 0 -i 4 -k RTR
r -t 39.027137762 -s 0 -d 0 -p ack -e 40 -c 2 -a 0 -i 4 -k AGT
+ -t 39.027137762 -s 0 -d -1 -p tcp -e 1040 -c 2 -a 0 -i 5 -k AGT 
- -t 39.027137762 -s 0 -d -1 -p tcp -e 1040 -c 2 -a 0 -i 5 -k AGT
h -t 39.027137762 -s 0 -d -1 -p tcp -e 1040 -c 2 -a 0 -i 5 -k AGT
+ -t 39.027137762 -s 0 -d 2 -p tcp -e 1040 -c 2 -a 0 -i 5 -k RTR 
- -t 39.027137762 -s 0 -d 2 -p tcp -e 1040 -c 2 -a 0 -i 5 -k RTR
h -t 39.027137762 -s 0 -d 2 -p tcp -e 1040 -c 2 -a 0 -i 5 -k RTR
+ -t 39.037003575 -s 2 -d 1 -p tcp -e 1040 -c 2 -a 0 -i 5 -k RTR 
- -t 39.037003575 -s 2 -d 1 -p tcp -e 1040 -c 2 -a 0 -i 5 -k RTR
h -t 39.037003575 -s 2 -d 1 -p tcp -e 1040 -c 2 -a 0 -i 5 -k RTR
r -t 39.047110064 -s 1 -d 1 -p tcp -e 1040 -c 2 -a 0 -i 5 -k AGT
+ -t 39.047110064 -s 1 -d -1 -p ack -e 40 -c 2 -a 0 -i 6 -k AGT 
- -t 39.047110064 -s 1 -d -1 -p ack -e 40 -c 2 -a 0 -i 6 -k AGT
h -t 39.047110064 -s 1 -d -1 -p ack -e 40 -c 2 -a 0 -i 6 -k AGT
+ -t 39.047110064 -s 1 -d 2 -p ack -e 40 -c 2 -a 0 -i 6 -k RTR 
- -t 39.047110064 -s 1 -d 2 -p ack -e 40 -c 2 -a 0 -i 6 -k RTR
h -t 39.047110064 -s 1 -d 2 -p ack -e 40 -c 2 -a 0 -i 6 -k RTR
+ -t 39.049076553 -s 2 -d 0 -p ack -e 40 -c 2 -a 0 -i 6 -k RTR 
- -t 39.049076553 -s 2 -d 0 -p ack -e 40 -c 2 -a 0 -i 6 -k RTR
h -t 39.049076553 -s 2 -d 0 -p ack -e 40 -c 2 -a 0 -i 6 -k RTR
r -t 39.051182365 -s 0 -d 0 -p ack -e 40 -c 2 -a 0 -i 6 -k AGT
+ -t 39.051182365 -s 0 -d -1 -p tcp -e 1040 -c 2 -a 0 -i 7 -k AGT 
- -t 39.051182365 -s 0 -d -1 -p tcp -e 1040 -c 2 -a 0 -i 7 -k AGT
h -t 39.051182365 -s 0 -d -1 -p tcp -e 1040 -c 2 -a 0 -i 7 -k AGT
+ -t 39.051182365 -s 0 -d -1 -p tcp -e 1040 -c 2 -a 0 -i 8 -k AGT 
- -t 39.051182365 -s 0 -d -1 -p tcp -e 1040 -c 2 -a 0 -i 8 -k AGT
h -t 39.051182365 -s 0 -d -1 -p tcp -e 1040 -c 2 -a 0 -i 8 -k AGT
+ -t 39.051182365 -s 0 -d 2 -p tcp -e 1040 -c 2 -a 0 -i 7 -k RTR 
- -t 39.051182365 -s 0 -d 2 -p tcp -e 1040 -c 2 -a 0 -i 7 -k RTR
h -t 39.051182365 -s 0 -d 2 -p tcp -e 1040 -c 2 -a 0 -i 7 -k RTR
+ -t 39.051182365 -s 0 -d 2 -p tcp -e 1040 -c 2 -a 0 -i 8 -k RTR 
- -t 39.051182365 -s 0 -d 2 -p tcp -e 1040 -c 2 -a 0 -i 8 -k RTR
h -t 39.051182365 -s 0 -d 2 -p tcp -e 1040 -c 2 -a 0 -i 8 -k RTR
+ -t 39.061108177 -s 2 -d 1 -p tcp -e 1040 -c 2 -a 0 -i 7 -k RTR 
- -t 39.061108177 -s 2 -d 1 -p tcp -e 1040 -c 2 -a 0 -i 7 -k RTR
h -t 39.061108177 -s 2 -d 1 -p tcp -e 1040 -c 2 -a 0 -i 7 -k RTR
+ -t 39.071154593 -s 2 -d 1 -p tcp -e 1040 -c 2 -a 0 -i 8 -k RTR 
- -t 39.071154593 -s 2 -d 1 -p tcp -e 1040 -c 2 -a 0 -i 8 -k RTR
h -t 39.071154593 -s 2 -d 1 -p tcp -e 1040 -c 2 -a 0 -i 8 -k RTR
r -t 39.081201081 -s 1 -d 1 -p tcp -e 1040 -c 2 -a 0 -i 7 -k AGT
+ -t 39.081201081 -s 1 -d -1 -p ack -e 40 -c 2 -a 0 -i 9 -k AGT 
- -t 39.081201081 -s 1 -d -1 -p ack -e 40 -c 2 -a 0 -i 9 -k AGT
h -t 39.081201081 -s 1 -d -1 -p ack -e 40 -c 2 -a 0 -i 9 -k AGT
+ -t 39.081201081 -s 1 -d 2 -p ack -e 40 -c 2 -a 0 -i 9 -k RTR 
- -t 39.081201081 -s 1 -d 2 -p ack -e 40 -c 2 -a 0 -i 9 -k RTR
h -t 39.081201081 -s 1 -d 2 -p ack -e 40 -c 2 -a 0 -i 9 -k RTR
r -t 39.091088397 -s 1 -d 1 -p tcp -e 1040 -c 2 -a 0 -i 8 -k AGT
+ -t 39.091088397 -s 1 -d -1 -p ack -e 40 -c 2 -a 0 -i 10 -k AGT 
- -t 39.091088397 -s 1 -d -1 -p ack -e 40 -c 2 -a 0 -i 10 -k AGT
h -t 39.091088397 -s 1 -d -1 -p ack -e 40 -c 2 -a 0 -i 10 -k AGT
+ -t 39.091088397 -s 1 -d 2 -p ack -e 40 -c 2 -a 0 -i 10 -k RTR 
- -t 39.091088397 -s 1 -d 2 -p ack -e 40 -c 2 -a 0 -i 10 -k RTR
h -t 39.091088397 -s 1 -d 2 -p ack -e 40 -c 2 -a 0 -i 10 -k RTR
+ -t 39.093434883 -s 2 -d 0 -p ack -e 40 -c 2 -a 0 -i 9 -k RTR 
- -t 39.093434883 -s 2 -d 0 -p ack -e 40 -c 2 -a 0 -i 9 -k RTR
h -t 39.093434883 -s 2 -d 0 -p ack -e 40 -c 2 -a 0 -i 9 -k RTR
r -t 39.095600694 -s 0 -d 0 -p ack -e 40 -c 2 -a 0 -i 9 -k AGT
+ -t 39.095600694 -s 0 -d -1 -p tcp -e 1040 -c 2 -a 0 -i 11 -k AGT 
- -t 39.095600694 -s 0 -d -1 -p tcp -e 1040 -c 2 -a 0 -i 11 -k AGT
h -t 39.095600694 -s 0 -d -1 -p tcp -e 1040 -c 2 -a 0 -i 11 -k AGT
+ -t 39.095600694 -s 0 -d 2 -p tcp -e 1040 -c 2 -a 0 -i 11 -k RTR 
- -t 39.095600694 -s 0 -d 2 -p tcp -e 1040 -c 2 -a 0 -i 11 -k RTR
h -t 39.095600694 -s 0 -d 2 -p tcp -e 1040 -c 2 -a 0 -i 11 -k RTR
+ -t 39.105706505 -s 2 -d 1 -p tcp -e 1040 -c 2 -a 0 -i 11 -k RTR 
- -t 39.105706505 -s 2 -d 1 -p tcp -e 1040 -c 2 -a 0 -i 11 -k RTR
h -t 39.105706505 -s 2 -d 1 -p tcp -e 1040 -c 2 -a 0 -i 11 -k RTR
+ -t 39.107763638 -s 2 -d 0 -p ack -e 40 -c 2 -a 0 -i 10 -k RTR 
- -t 39.107763638 -s 2 -d 0 -p ack -e 40 -c 2 -a 0 -i 10 -k RTR
h -t 39.107763638 -s 2 -d 0 -p ack -e 40 -c 2 -a 0 -i 10 -k RTR
r -t 39.117650123 -s 1 -d 1 -p tcp -e 1040 -c 2 -a 0 -i 11 -k AGT
+ -t 39.117650123 -s 1 -d -1 -p ack -e 40 -c 2 -a 0 -i 12 -k AGT 
- -t 39.117650123 -s 1 -d -1 -p ack -e 40 -c 2 -a 0 -i 12 -k AGT
h -t 39.117650123 -s 1 -d -1 -p ack -e 40 -c 2 -a 0 -i 12 -k AGT
+ -t 39.117650123 -s 1 -d 2 -p ack -e 40 -c 2 -a 0 -i 12 -k RTR 
- -t 39.117650123 -s 1 -d 2 -p ack -e 40 -c 2 -a 0 -i 12 -k RTR
h -t 39.117650123 -s 1 -d 2 -p ack -e 40 -c 2 -a 0 -i 12 -k RTR
+ -t 39.119696608 -s 2 -d 0 -p ack -e 40 -c 2 -a 0 -i 12 -k RTR 
- -t 39.119696608 -s 2 -d 0 -p ack -e 40 -c 2 -a 0 -i 12 -k RTR
h -t 39.119696608 -s 2 -d 0 -p ack -e 40 -c 2 -a 0 -i 12 -k RTR
r -t 39.121642418 -s 0 -d 0 -p ack -e 40 -c 2 -a 0 -i 10 -k AGT
+ -t 39.121642418 -s 0 -d -1 -p tcp -e 1040 -c 2 -a 0 -i 13 -k AGT 
- -t 39.121642418 -s 0 -d -1 -p tcp -e 1040 -c 2 -a 0 -i 13 -k AGT
h -t 39.121642418 -s 0 -d -1 -p tcp -e 1040 -c 2 -a 0 -i 13 -k AGT
+ -t 39.121642418 -s 0 -d 2 -p tcp -e 1040 -c 2 -a 0 -i 13 -k RTR 
- -t 39.121642418 -s 0 -d 2 -p tcp -e 1040 -c 2 -a 0 -i 13 -k RTR
h -t 39.121642418 -s 0 -d 2 -p tcp -e 1040 -c 2 -a 0 -i 13 -k RTR
+ -t 39.131668228 -s 2 -d 1 -p tcp -e 1040 -c 2 -a 0 -i 13 -k RTR 
- -t 39.131668228 -s 2 -d 1 -p tcp -e 1040 -c 2 -a 0 -i 13 -k RTR
h -t 39.131668228 -s 2 -d 1 -p tcp -e 1040 -c 2 -a 0 -i 13 -k RTR
r -t 39.133534037 -s 0 -d 0 -p ack -e 40 -c 2 -a 0 -i 12 -k AGT
+ -t 39.133534037 -s 0 -d -1 -p tcp -e 1040 -c 2 -a 0 -i 14 -k AGT 
- -t 39.133534037 -s 0 -d -1 -p tcp -e 1040 -c 2 -a 0 -i 14 -k AGT
h -t 39.133534037 -s 0 -d -1 -p tcp -e 1040 -c 2 -a 0 -i 14 -k AGT
+ -t 39.133534037 -s 0 -d -1 -p tcp -e 1040 -c 2 -a 0 -i 15 -k AGT 
- -t 39.133534037 -s 0 -d -1 -p tcp -e 1040 -c 2 -a 0 -i 15 -k AGT
h -t 39.133534037 -s 0 -d -1 -p tcp -e 1040 -c 2 -a 0 -i 15 -k AGT
+ -t 39.133534037 -s 0 -d 2 -p tcp -e 1040 -c 2 -a 0 -i 14 -k RTR 
- -t 39.133534037 -s 0 -d 2 -p tcp -e 1040 -c 2 -a 0 -i 14 -k RTR
h -t 39.133534037 -s 0 -d 2 -p tcp -e 1040 -c 2 -a 0 -i 14 -k RTR
+ -t 39.133534037 -s 0 -d 2 -p tcp -e 1040 -c 2 -a 0 -i 15 -k RTR 
- -t 39.133534037 -s 0 -d 2 -p tcp -e 1040 -c 2 -a 0 -i 15 -k RTR
h -t 39.133534037 -s 0 -d 2 -p tcp -e 1040 -c 2 -a 0 -i 15 -k RTR
+ -t 39.143419846 -s 2 -d 1 -p tcp -e 1040 -c 2 -a 0 -i 14 -k RTR 
- -t 39.143419846 -s 2 -d 1 -p tcp -e 1040 -c 2 -a 0 -i 14 -k RTR
h -t 39.143419846 -s 2 -d 1 -p tcp -e 1040 -c 2 -a 0 -i 14 -k RTR
+ -t 39.153246258 -s 2 -d 1 -p tcp -e 1040 -c 2 -a 0 -i 15 -k RTR 
- -t 39.153246258 -s 2 -d 1 -p tcp -e 1040 -c 2 -a 0 -i 15 -k RTR
h -t 39.153246258 -s 2 -d 1 -p tcp -e 1040 -c 2 -a 0 -i 15 -k RTR
r -t 39.163332741 -s 1 -d 1 -p tcp -e 1040 -c 2 -a 0 -i 13 -k AGT
+ -t 39.163332741 -s 1 -d -1 -p ack -e 40 -c 2 -a 0 -i 16 -k AGT 
- -t 39.163332741 -s 1 -d -1 -p ack -e 40 -c 2 -a 0 -i 16 -k AGT
h -t 39.163332741 -s 1 -d -1 -p ack -e 40 -c 2 -a 0 -i 16 -k AGT
+ -t 39.163332741 -s 1 -d 2 -p ack -e 40 -c 2 -a 0 -i 16 -k RTR 
- -t 39.163332741 -s 1 -d 2 -p ack -e 40 -c 2 -a 0 -i 16 -k RTR
h -t 39.163332741 -s 1 -d 2 -p ack -e 40 -c 2 -a 0 -i 16 -k RTR
r -t 39.173440052 -s 1 -d 1 -p tcp -e 1040 -c 2 -a 0 -i 14 -k AGT
+ -t 39.173440052 -s 1 -d -1 -p ack -e 40 -c 2 -a 0 -i 17 -k AGT 
- -t 39.173440052 -s 1 -d -1 -p ack -e 40 -c 2 -a 0 -i 17 -k AGT
h -t 39.173440052 -s 1 -d -1 -p ack -e 40 -c 2 -a 0 -i 17 -k AGT
+ -t 39.173440052 -s 1 -d 2 -p ack -e 40 -c 2 -a 0 -i 17 -k RTR 
- -t 39.173440052 -s 1 -d 2 -p ack -e 40 -c 2 -a 0 -i 17 -k RTR
h -t 39.173440052 -s 1 -d 2 -p ack -e 40 -c 2 -a 0 -i 17 -k RTR
+ -t 39.175286534 -s 2 -d 0 -p ack -e 40 -c 2 -a 0 -i 16 -k RTR 
- -t 39.175286534 -s 2 -d 0 -p ack -e 40 -c 2 -a 0 -i 16 -k RTR
h -t 39.175286534 -s 2 -d 0 -p ack -e 40 -c 2 -a 0 -i 16 -k RTR
r -t 39.185133017 -s 1 -d 1 -p tcp -e 1040 -c 2 -a 0 -i 15 -k AGT
+ -t 39.185133017 -s 1 -d -1 -p ack -e 40 -c 2 -a 0 -i 18 -k AGT 
- -t 39.185133017 -s 1 -d -1 -p ack -e 40 -c 2 -a 0 -i 18 -k AGT
h -t 39.185133017 -s 1 -d -1 -p ack -e 40 -c 2 -a 0 -i 18 -k AGT
+ -t 39.185133017 -s 1 -d 2 -p ack -e 40 -c 2 -a 0 -i 18 -k RTR 
- -t 39.185133017 -s 1 -d 2 -p ack -e 40 -c 2 -a 0 -i 18 -k RTR
h -t 39.185133017 -s 1 -d 2 -p ack -e 40 -c 2 -a 0 -i 18 -k RTR
r -t 39.187199651 -s 0 -d 0 -p ack -e 40 -c 2 -a 0 -i 16 -k AGT
+ -t 39.187199651 -s 0 -d -1 -p tcp -e 1040 -c 2 -a 0 -i 19 -k AGT 
- -t 39.187199651 -s 0 -d -1 -p tcp -e 1040 -c 2 -a 0 -i 19 -k AGT
h -t 39.187199651 -s 0 -d -1 -p tcp -e 1040 -c 2 -a 0 -i 19 -k AGT
+ -t 39.187199651 -s 0 -d 2 -p tcp -e 1040 -c 2 -a 0 -i 19 -k RTR 
- -t 39.187199651 -s 0 -d 2 -p tcp -e 1040 -c 2 -a 0 -i 19 -k RTR
h -t 39.187199651 -s 0 -d 2 -p tcp -e 1040 -c 2 -a 0 -i 19 -k RTR
+ -t 39.197145458 -s 2 -d 1 -p tcp -e 1040 -c 2 -a 0 -i 19 -k RTR 
- -t 39.197145458 -s 2 -d 1 -p tcp -e 1040 -c 2 -a 0 -i 19 -k RTR
h -t 39.197145458 -s 2 -d 1 -p tcp -e 1040 -c 2 -a 0 -i 19 -k RTR
r -t 39.207171939 -s 1 -d 1 -p tcp -e 1040 -c 2 -a 0 -i 19 -k AGT
+ -t 39.207171939 -s 1 -d -1 -p ack -e 40 -c 2 -a 0 -i 20 -k AGT 
- -t 39.207171939 -s 1 -d -1 -p ack -e 40 -c 2 -a 0 -i 20 -k AGT
h -t 39.207171939 -s 1 -d -1 -p ack -e 40 -c 2 -a 0 -i 20 -k AGT
+ -t 39.207171939 -s 1 -d 2 -p ack -e 40 -c 2 -a 0 -i 20 -k RTR 
- -t 39.207171939 -s 1 -d 2 -p ack -e 40 -c 2 -a 0 -i 20 -k RTR
h -t 39.207171939 -s 1 -d 2 -p ack -e 40 -c 2 -a 0 -i 20 -k RTR
+ -t 39.209098420 -s 2 -d 0 -p ack -e 40 -c 2 -a 0 -i 17 -k RTR 
- -t 39.209098420 -s 2 -d 0 -p ack -e 40 -c 2 -a 0 -i 17 -k RTR
h -t 39.209098420 -s 2 -d 0 -p ack -e 40 -c 2 -a 0 -i 17 -k RTR
+ -t 39.211045728 -s 2 -d 0 -p ack -e 40 -c 2 -a 0 -i 18 -k RTR 
- -t 39.211045728 -s 2 -d 0 -p ack -e 40 -c 2 -a 0 -i 18 -k RTR
h -t 39.211045728 -s 2 -d 0 -p ack -e 40 -c 2 -a 0 -i 18 -k RTR
+ -t 39.213073035 -s 2 -d 0 -p ack -e 40 -c 2 -a 0 -i 20 -k RTR 
- -t 39.213073035 -s 2 -d 0 -p ack -e 40 -c 2 -a 0 -i 20 -k RTR
h -t 39.213073035 -s 2 -d 0 -p ack -e 40 -c 2 -a 0 -i 20 -k RTR
r -t 39.214958841 -s 0 -d 0 -p ack -e 40 -c 2 -a 0 -i 17 -k AGT
+ -t 39.214958841 -s 0 -d -1 -p tcp -e 1040 -c 2 -a 0 -i 21 -k AGT 
- -t 39.214958841 -s 0 -d -1 -p tcp -e 1040 -c 2 -a 0 -i 21 -k AGT
h -t 39.214958841 -s 0 -d -1 -p tcp -e 1040 -c 2 -a 0 -i 21 -k AGT
+ -t 39.214958841 -s 0 -d 2 -p tcp -e 1040 -c 2 -a 0 -i 21 -k RTR 
- -t 39.214958841 -s 0 -d 2 -p tcp -e 1040 -c 2 -a 0 -i 21 -k RTR
h -t 39.214958841 -s 0 -d 2 -p tcp -e 1040 -c 2 -a 0 -i 21 -k RTR
+ -t 39.224864647 -s 2 -d 1 -p tcp -e 1040 -c 2 -a 0 -i 21 -k RTR 
- -t 39.224864647 -s 2 -d 1 -p tcp -e 1040 -c 2 -a 0 -i 21 -k RTR
h -t 39.224864647 -s 2 -d 1 -p tcp -e 1040 -c 2 -a 0 -i 21 -k RTR
r -t 39.226890453 -s 0 -d 0 -p ack -e 40 -c 2 -a 0 -i 18 -k AGT
+ -t 39.226890453 -s 0 -d -1 -p tcp -e 1040 -c 2 -a 0 -i 22 -k AGT 
- -t 39.226890453 -s 0 -d -1 -p tcp -e 1040 -c 2 -a 0 -i 22 -k AGT
h -t 39.226890453 -s 0 -d -1 -p tcp -e 1040 -c 2 -a 0 -i 22 -k AGT
+ -t 39.226890453 -s 0 -d -1 -p tcp -e 1040 -c 2 -a 0 -i 23 -k AGT 
- -t 39.226890453 -s 0 -d -1 -p tcp -e 1040 -c 2 -a 0 -i 23 -k AGT
h -t 39.226890453 -s 0 -d -1 -p tcp -e 1040 -c 2 -a 0 -i 23 -k AGT
+ -t 39.226890453 -s 0 -d 2 -p tcp -e 1040 -c 2 -a 0 -i 22 -k RTR 
- -t 39.226890453 -s 0 -d 2 -p tcp -e 1040 -c 2 -a 0 -i 22 -k RTR
h -t 39.226890453 -s 0 -d 2 -p tcp -e 1040 -c 2 -a 0 -i 22 -k RTR
+ -t 39.226890453 -s 0 -d 2 -p tcp -e 1040 -c 2 -a 0 -i 23 -k RTR 
- -t 39.226890453 -s 0 -d 2 -p tcp -e 1040 -c 2 -a 0 -i 23 -k RTR
h -t 39.226890453 -s 0 -d 2 -p tcp -e 1040 -c 2 -a 0 -i 23 -k RTR
+ -t 39.236736259 -s 2 -d 1 -p tcp -e 1040 -c 2 -a 0 -i 22 -k RTR 
- -t 39.236736259 -s 2 -d 1 -p tcp -e 1040 -c 2 -a 0 -i 22 -k RTR
h -t 39.236736259 -s 2 -d 1 -p tcp -e 1040 -c 2 -a 0 -i 22 -k RTR
r -t 39.238622064 -s 0 -d 0 -p ack -e 40 -c 2 -a 0 -i 20 -k AGT
+ -t 39.238622064 -s 0 -d -1 -p tcp -e 1040 -c 2 -a 0 -i 24 -k AGT 
- -t 39.238622064 -s 0 -d -1 -p tcp -e 1040 -c 2 -a 0 -i 24 -k AGT
h -t 39.238622064 -s 0 -d -1 -p tcp -e 1040 -c 2 -a 0 -i 24 -k AGT
+ -t 39.238622064 -s 0 -d 2 -p tcp -e 1040 -c 2 -a 0 -i 24 -k RTR 
- -t 39.238622064 -s 0 -d 2 -p tcp -e 1040 -c 2 -a 0 -i 24 -k RTR
h -t 39.238622064 -s 0 -d 2 -p tcp -e 1040 -c 2 -a 0 -i 24 -k RTR
+ -t 39.248747869 -s 2 -d 1 -p tcp -e 1040 -c 2 -a 0 -i 23 -k RTR 
- -t 39.248747869 -s 2 -d 1 -p tcp -e 1040 -c 2 -a 0 -i 23 -k RTR
h -t 39.248747869 -s 2 -d 1 -p tcp -e 1040 -c 2 -a 0 -i 23 -k RTR
+ -t 39.258694275 -s 2 -d 1 -p tcp -e 1040 -c 2 -a 0 -i 24 -k RTR 
- -t 39.258694275 -s 2 -d 1 -p tcp -e 1040 -c 2 -a 0 -i 24 -k RTR
h -t 39.258694275 -s 2 -d 1 -p tcp -e 1040 -c 2 -a 0 -i 24 -k RTR
r -t 39.268720753 -s 1 -d 1 -p tcp -e 1040 -c 2 -a 0 -i 21 -k AGT
+ -t 39.268720753 -s 1 -d -1 -p ack -e 40 -c 2 -a 0 -i 25 -k AGT 
- -t 39.268720753 -s 1 -d -1 -p ack -e 40 -c 2 -a 0 -i 25 -k AGT
h -t 39.268720753 -s 1 -d -1 -p ack -e 40 -c 2 -a 0 -i 25 -k AGT
+ -t 39.268720753 -s 1 -d 2 -p ack -e 40 -c 2 -a 0 -i 25 -k RTR 
- -t 39.268720753 -s 1 -d 2 -p ack -e 40 -c 2 -a 0 -i 25 -k RTR
h -t 39.268720753 -s 1 -d 2 -p ack -e 40 -c 2 -a 0 -i 25 -k RTR
r -t 39.278668057 -s 1 -d 1 -p tcp -e 1040 -c 2 -a 0 -i 22 -k AGT
+ -t 39.278668057 -s 1 -d -1 -p ack -e 40 -c 2 -a 0 -i 26 -k AGT 
- -t 39.278668057 -s 1 -d -1 -p ack -e 40 -c 2 -a 0 -i 26 -k AGT
h -t 39.278668057 -s 1 -d -1 -p ack -e 40 -c 2 -a 0 -i 26 -k AGT
+ -t 39.278668057 -s 1 -d 2 -p ack -e 40 -c 2 -a 0 -i 26 -k RTR 
- -t 39.278668057 -s 1 -d 2 -p ack -e 40 -c 2 -a 0 -i 26 -k RTR
h -t 39.278668057 -s 1 -d 2 -p ack -e 40 -c 2 -a 0 -i 26 -k RTR
+ -t 39.280954534 -s 2 -d 0 -p ack -e 40 -c 2 -a 0 -i 25 -k RTR 
- -t 39.280954534 -s 2 -d 0 -p ack -e 40 -c 2 -a 0 -i 25 -k RTR
h -t 39.280954534 -s 2 -d 0 -p ack -e 40 -c 2 -a 0 -i 25 -k RTR
r -t 39.290941011 -s 1 -d 1 -p tcp -e 1040 -c 2 -a 0 -i 23 -k AGT
+ -t 39.290941011 -s 1 -d -1 -p ack -e 40 -c 2 -a 0 -i 27 -k AGT 
- -t 39.290941011 -s 1 -d -1 -p ack -e 40 -c 2 -a 0 -i 27 -k AGT
h -t 39.290941011 -s 1 -d -1 -p ack -e 40 -c 2 -a 0 -i 27 -k AGT
+ -t 39.290941011 -s 1 -d 2 -p ack -e 40 -c 2 -a 0 -i 27 -k RTR 
- -t 39.290941011 -s 1 -d 2 -p ack -e 40 -c 2 -a 0 -i 27 -k RTR
h -t 39.290941011 -s 1 -d 2 -p ack -e 40 -c 2 -a 0 -i 27 -k RTR
+ -t 39.293067488 -s 2 -d 0 -p ack -e 40 -c 2 -a 0 -i 26 -k RTR 
- -t 39.293067488 -s 2 -d 0 -p ack -e 40 -c 2 -a 0 -i 26 -k RTR
h -t 39.293067488 -s 2 -d 0 -p ack -e 40 -c 2 -a 0 -i 26 -k RTR
r -t 39.303153965 -s 1 -d 1 -p tcp -e 1040 -c 2 -a 0 -i 24 -k AGT
+ -t 39.303153965 -s 1 -d -1 -p ack -e 40 -c 2 -a 0 -i 28 -k AGT 
- -t 39.303153965 -s 1 -d -1 -p ack -e 40 -c 2 -a 0 -i 28 -k AGT
h -t 39.303153965 -s 1 -d -1 -p ack -e 40 -c 2 -a 0 -i 28 -k AGT
+ -t 39.303153965 -s 1 -d 2 -p ack -e 40 -c 2 -a 0 -i 28 -k RTR 
- -t 39.303153965 -s 1 -d 2 -p ack -e 40 -c 2 -a 0 -i 28 -k RTR
h -t 39.303153965 -s 1 -d 2 -p ack -e 40 -c 2 -a 0 -i 28 -k RTR
+ -t 39.305040441 -s 2 -d 0 -p ack -e 40 -c 2 -a 0 -i 27 -k RTR 
- -t 39.305040441 -s 2 -d 0 -p ack -e 40 -c 2 -a 0 -i 27 -k RTR
h -t 39.305040441 -s 2 -d 0 -p ack -e 40 -c 2 -a 0 -i 27 -k RTR
r -t 39.307126243 -s 0 -d 0 -p ack -e 40 -c 2 -a 0 -i 25 -k AGT
+ -t 39.307126243 -s 0 -d -1 -p tcp -e 1040 -c 2 -a 0 -i 29 -k AGT 
- -t 39.307126243 -s 0 -d -1 -p tcp -e 1040 -c 2 -a 0 -i 29 -k AGT
h -t 39.307126243 -s 0 -d -1 -p tcp -e 1040 -c 2 -a 0 -i 29 -k AGT
+ -t 39.307126243 -s 0 -d 2 -p tcp -e 1040 -c 2 -a 0 -i 29 -k RTR 
- -t 39.307126243 -s 0 -d 2 -p tcp -e 1040 -c 2 -a 0 -i 29 -k RTR
h -t 39.307126243 -s 0 -d 2 -p tcp -e 1040 -c 2 -a 0 -i 29 -k RTR
r -t 39.308992646 -s 0 -d 0 -p ack -e 40 -c 2 -a 0 -i 26 -k AGT
+ -t 39.308992646 -s 0 -d -1 -p tcp -e 1040 -c 2 -a 0 -i 30 -k AGT 
- -t 39.308992646 -s 0 -d -1 -p tcp -e 1040 -c 2 -a 0 -i 30 -k AGT
h -t 39.308992646 -s 0 -d -1 -p tcp -e 1040 -c 2 -a 0 -i 30 -k AGT
+ -t 39.308992646 -s 0 -d 2 -p tcp -e 1040 -c 2 -a 0 -i 30 -k RTR 
- -t 39.308992646 -s 0 -d 2 -p tcp -e 1040 -c 2 -a 0 -i 30 -k RTR
h -t 39.308992646 -s 0 -d 2 -p tcp -e 1040 -c 2 -a 0 -i 30 -k RTR
+ -t 39.319118449 -s 2 -d 1 -p tcp -e 1040 -c 2 -a 0 -i 29 -k RTR 
- -t 39.319118449 -s 2 -d 1 -p tcp -e 1040 -c 2 -a 0 -i 29 -k RTR
h -t 39.319118449 -s 2 -d 1 -p tcp -e 1040 -c 2 -a 0 -i 29 -k RTR
+ -t 39.321055568 -s 2 -d 0 -p ack -e 40 -c 2 -a 0 -i 28 -k RTR 
- -t 39.321055568 -s 2 -d 0 -p ack -e 40 -c 2 -a 0 -i 28 -k RTR
h -t 39.321055568 -s 2 -d 0 -p ack -e 40 -c 2 -a 0 -i 28 -k RTR
+ -t 39.331051789 -s 2 -d 1 -p tcp -e 1040 -c 2 -a 0 -i 30 -k RTR 
- -t 39.331051789 -s 2 -d 1 -p tcp -e 1040 -c 2 -a 0 -i 30 -k RTR
h -t 39.331051789 -s 2 -d 1 -p tcp -e 1040 -c 2 -a 0 -i 30 -k RTR
r -t 39.332917590 -s 0 -d 0 -p ack -e 40 -c 2 -a 0 -i 27 -k AGT
+ -t 39.332917590 -s 0 -d -1 -p tcp -e 1040 -c 2 -a 0 -i 31 -k AGT 
- -t 39.332917590 -s 0 -d -1 -p tcp -e 1040 -c 2 -a 0 -i 31 -k AGT
h -t 39.332917590 -s 0 -d -1 -p tcp -e 1040 -c 2 -a 0 -i 31 -k AGT
+ -t 39.332917590 -s 0 -d 2 -p tcp -e 1040 -c 2 -a 0 -i 31 -k RTR 
- -t 39.332917590 -s 0 -d 2 -p tcp -e 1040 -c 2 -a 0 -i 31 -k RTR
h -t 39.332917590 -s 0 -d 2 -p tcp -e 1040 -c 2 -a 0 -i 31 -k RTR
+ -t 39.342883392 -s 2 -d 1 -p tcp -e 1040 -c 2 -a 0 -i 31 -k RTR 
- -t 39.342883392 -s 2 -d 1 -p tcp -e 1040 -c 2 -a 0 -i 31 -k RTR
h -t 39.342883392 -s 2 -d 1 -p tcp -e 1040 -c 2 -a 0 -i 31 -k RTR
r -t 39.353029866 -s 1 -d 1 -p tcp -e 1040 -c 2 -a 0 -i 29 -k AGT
+ -t 39.353029866 -s 1 -d -1 -p ack -e 40 -c 2 -a 0 -i 32 -k AGT 
- -t 39.353029866 -s 1 -d -1 -p ack -e 40 -c 2 -a 0 -i 32 -k AGT
h -t 39.353029866 -s 1 -d -1 -p ack -e 40 -c 2 -a 0 -i 32 -k AGT
+ -t 39.353029866 -s 1 -d 2 -p ack -e 40 -c 2 -a 0 -i 32 -k RTR 
- -t 39.353029866 -s 1 -d 2 -p ack -e 40 -c 2 -a 0 -i 32 -k RTR
h -t 39.353029866 -s 1 -d 2 -p ack -e 40 -c 2 -a 0 -i 32 -k RTR
+ -t 39.354976339 -s 2 -d 0 -p ack -e 40 -c 2 -a 0 -i 32 -k RTR 
- -t 39.354976339 -s 2 -d 0 -p ack -e 40 -c 2 -a 0 -i 32 -k RTR
h -t 39.354976339 -s 2 -d 0 -p ack -e 40 -c 2 -a 0 -i 32 -k RTR
r -t 39.356862140 -s 0 -d 0 -p ack -e 40 -c 2 -a 0 -i 28 -k AGT
+ -t 39.356862140 -s 0 -d -1 -p tcp -e 1040 -c 2 -a 0 -i 33 -k AGT 
- -t 39.356862140 -s 0 -d -1 -p tcp -e 1040 -c 2 -a 0 -i 33 -k AGT
h -t 39.356862140 -s 0 -d -1 -p tcp -e 1040 -c 2 -a 0 -i 33 -k AGT
+ -t 39.356862140 -s 0 -d -1 -p tcp -e 1040 -c 2 -a 0 -i 34 -k AGT 
- -t 39.356862140 -s 0 -d -1 -p tcp -e 1040 -c 2 -a 0 -i 34 -k AGT
h -t 39.356862140 -s 0 -d -1 -p tcp -e 1040 -c 2 -a 0 -i 34 -k AGT
+ -t 39.356862140 -s 0 -d 2 -p tcp -e 1040 -c 2 -a 0 -i 33 -k RTR 
- -t 39.356862140 -s 0 -d 2 -p tcp -e 1040 -c 2 -a 0 -i 33 -k RTR
h -t 39.356862140 -s 0 -d 2 -p tcp -e 1040 -c 2 -a 0 -i 33 -k RTR
+ -t 39.356862140 -s 0 -d 2 -p tcp -e 1040 -c 2 -a 0 -i 34 -k RTR 
- -t 39.356862140 -s 0 -d 2 -p tcp -e 1040 -c 2 -a 0 -i 34 -k RTR
h -t 39.356862140 -s 0 -d 2 -p tcp -e 1040 -c 2 -a 0 -i 34 -k RTR
r -t 39.366689213 -s 1 -d 1 -p tcp -e 1040 -c 2 -a 0 -i 30 -k AGT
+ -t 39.366689213 -s 1 -d -1 -p ack -e 40 -c 2 -a 0 -i 35 -k AGT 
- -t 39.366689213 -s 1 -d -1 -p ack -e 40 -c 2 -a 0 -i 35 -k AGT
h -t 39.366689213 -s 1 -d -1 -p ack -e 40 -c 2 -a 0 -i 35 -k AGT
+ -t 39.366689213 -s 1 -d 2 -p ack -e 40 -c 2 -a 0 -i 35 -k RTR 
- -t 39.366689213 -s 1 -d 2 -p ack -e 40 -c 2 -a 0 -i 35 -k RTR
h -t 39.366689213 -s 1 -d 2 -p ack -e 40 -c 2 -a 0 -i 35 -k RTR
r -t 39.376656511 -s 1 -d 1 -p tcp -e 1040 -c 2 -a 0 -i 31 -k AGT
+ -t 39.376656511 -s 1 -d -1 -p ack -e 40 -c 2 -a 0 -i 36 -k AGT 
- -t 39.376656511 -s 1 -d -1 -p ack -e 40 -c 2 -a 0 -i 36 -k AGT
h -t 39.376656511 -s 1 -d -1 -p ack -e 40 -c 2 -a 0 -i 36 -k AGT
+ -t 39.376656511 -s 1 -d 2 -p ack -e 40 -c 2 -a 0 -i 36 -k RTR 
- -t 39.376656511 -s 1 -d 2 -p ack -e 40 -c 2 -a 0 -i 36 -k RTR
h -t 39.376656511 -s 1 -d 2 -p ack -e 40 -c 2 -a 0 -i 36 -k RTR
+ -t 39.378522983 -s 2 -d 0 -p ack -e 40 -c 2 -a 0 -i 35 -k RTR 
- -t 39.378522983 -s 2 -d 0 -p ack -e 40 -c 2 -a 0 -i 35 -k RTR
h -t 39.378522983 -s 2 -d 0 -p ack -e 40 -c 2 -a 0 -i 35 -k RTR
+ -t 39.388499201 -s 2 -d 1 -p tcp -e 1040 -c 2 -a 0 -i 33 -k RTR 
- -t 39.388499201 -s 2 -d 1 -p tcp -e 1040 -c 2 -a 0 -i 33 -k RTR
h -t 39.388499201 -s 2 -d 1 -p tcp -e 1040 -c 2 -a 0 -i 33 -k RTR
r -t 39.390525000 -s 0 -d 0 -p ack -e 40 -c 2 -a 0 -i 32 -k AGT
+ -t 39.390525000 -s 0 -d -1 -p tcp -e 1040 -c 2 -a 0 -i 37 -k AGT 
- -t 39.390525000 -s 0 -d -1 -p tcp -e 1040 -c 2 -a 0 -i 37 -k AGT
h -t 39.390525000 -s 0 -d -1 -p tcp -e 1040 -c 2 -a 0 -i 37 -k AGT
+ -t 39.390525000 -s 0 -d 2 -p tcp -e 1040 -c 2 -a 0 -i 37 -k RTR 
- -t 39.390525000 -s 0 -d 2 -p tcp -e 1040 -c 2 -a 0 -i 37 -k RTR
h -t 39.390525000 -s 0 -d 2 -p tcp -e 1040 -c 2 -a 0 -i 37 -k RTR
+ -t 39.400590800 -s 2 -d 1 -p tcp -e 1040 -c 2 -a 0 -i 34 -k RTR 
- -t 39.400590800 -s 2 -d 1 -p tcp -e 1040 -c 2 -a 0 -i 34 -k RTR
h -t 39.400590800 -s 2 -d 1 -p tcp -e 1040 -c 2 -a 0 -i 34 -k RTR
+ -t 39.402507913 -s 2 -d 0 -p ack -e 40 -c 2 -a 0 -i 36 -k RTR 
- -t 39.402507913 -s 2 -d 0 -p ack -e 40 -c 2 -a 0 -i 36 -k RTR
h -t 39.402507913 -s 2 -d 0 -p ack -e 40 -c 2 -a 0 -i 36 -k RTR
r -t 39.404533712 -s 0 -d 0 -p ack -e 40 -c 2 -a 0 -i 35 -k AGT
+ -t 39.404533712 -s 0 -d -1 -p tcp -e 1040 -c 2 -a 0 -i 38 -k AGT 
- -t 39.404533712 -s 0 -d -1 -p tcp -e 1040 -c 2 -a 0 -i 38 -k AGT
h -t 39.404533712 -s 0 -d -1 -p tcp -e 1040 -c 2 -a 0 -i 38 -k AGT
+ -t 39.404533712 -s 0 -d 2 -p tcp -e 1040 -c 2 -a 0 -i 38 -k RTR 
- -t 39.404533712 -s 0 -d 2 -p tcp -e 1040 -c 2 -a 0 -i 38 -k RTR
h -t 39.404533712 -s 0 -d 2 -p tcp -e 1040 -c 2 -a 0 -i 38 -k RTR
r -t 39.414380782 -s 1 -d 1 -p tcp -e 1040 -c 2 -a 0 -i 33 -k AGT
+ -t 39.414380782 -s 1 -d -1 -p ack -e 40 -c 2 -a 0 -i 39 -k AGT 
- -t 39.414380782 -s 1 -d -1 -p ack -e 40 -c 2 -a 0 -i 39 -k AGT
h -t 39.414380782 -s 1 -d -1 -p ack -e 40 -c 2 -a 0 -i 39 -k AGT
+ -t 39.414380782 -s 1 -d 2 -p ack -e 40 -c 2 -a 0 -i 39 -k RTR 
- -t 39.414380782 -s 1 -d 2 -p ack -e 40 -c 2 -a 0 -i 39 -k RTR
h -t 39.414380782 -s 1 -d 2 -p ack -e 40 -c 2 -a 0 -i 39 -k RTR
r -t 39.424308077 -s 1 -d 1 -p tcp -e 1040 -c 2 -a 0 -i 34 -k AGT
+ -t 39.424308077 -s 1 -d -1 -p ack -e 40 -c 2 -a 0 -i 40 -k AGT 
- -t 39.424308077 -s 1 -d -1 -p ack -e 40 -c 2 -a 0 -i 40 -k AGT
h -t 39.424308077 -s 1 -d -1 -p ack -e 40 -c 2 -a 0 -i 40 -k AGT
+ -t 39.424308077 -s 1 -d 2 -p ack -e 40 -c 2 -a 0 -i 40 -k RTR 
- -t 39.424308077 -s 1 -d 2 -p ack -e 40 -c 2 -a 0 -i 40 -k RTR
h -t 39.424308077 -s 1 -d 2 -p ack -e 40 -c 2 -a 0 -i 40 -k RTR
r -t 39.426134698 -s 0 -d 0 -p ack -e 40 -c 2 -a 0 -i 36 -k AGT
+ -t 39.426134698 -s 0 -d -1 -p tcp -e 1040 -c 2 -a 0 -i 41 -k AGT 
- -t 39.426134698 -s 0 -d -1 -p tcp -e 1040 -c 2 -a 0 -i 41 -k AGT
h -t 39.426134698 -s 0 -d -1 -p tcp -e 1040 -c 2 -a 0 -i 41 -k AGT
+ -t 39.426134698 -s 0 -d 2 -p tcp -e 1040 -c 2 -a 0 -i 41 -k RTR 
- -t 39.426134698 -s 0 -d 2 -p tcp -e 1040 -c 2 -a 0 -i 41 -k RTR
h -t 39.426134698 -s 0 -d 2 -p tcp -e 1040 -c 2 -a 0 -i 41 -k RTR
+ -t 39.436040496 -s 2 -d 1 -p tcp -e 1040 -c 2 -a 0 -i 37 -k RTR 
- -t 39.436040496 -s 2 -d 1 -p tcp -e 1040 -c 2 -a 0 -i 37 -k RTR
h -t 39.436040496 -s 2 -d 1 -p tcp -e 1040 -c 2 -a 0 -i 37 -k RTR
+ -t 39.438077607 -s 2 -d 0 -p ack -e 40 -c 2 -a 0 -i 39 -k RTR 
- -t 39.438077607 -s 2 -d 0 -p ack -e 40 -c 2 -a 0 -i 39 -k RTR
h -t 39.438077607 -s 2 -d 0 -p ack -e 40 -c 2 -a 0 -i 39 -k RTR
r -t 39.448224076 -s 1 -d 1 -p tcp -e 1040 -c 2 -a 0 -i 37 -k AGT
+ -t 39.448224076 -s 1 -d -1 -p ack -e 40 -c 2 -a 0 -i 42 -k AGT 
- -t 39.448224076 -s 1 -d -1 -p ack -e 40 -c 2 -a 0 -i 42 -k AGT
h -t 39.448224076 -s 1 -d -1 -p ack -e 40 -c 2 -a 0 -i 42 -k AGT
+ -t 39.448224076 -s 1 -d 2 -p ack -e 40 -c 2 -a 0 -i 42 -k RTR 
- -t 39.448224076 -s 1 -d 2 -p ack -e 40 -c 2 -a 0 -i 42 -k RTR
h -t 39.448224076 -s 1 -d 2 -p ack -e 40 -c 2 -a 0 -i 42 -k RTR
r -t 39.450070696 -s 0 -d 0 -p ack -e 40 -c 2 -a 0 -i 39 -k AGT
+ -t 39.450070696 -s 0 -d -1 -p tcp -e 1040 -c 2 -a 0 -i 43 -k AGT 
- -t 39.450070696 -s 0 -d -1 -p tcp -e 1040 -c 2 -a 0 -i 43 -k AGT
h -t 39.450070696 -s 0 -d -1 -p tcp -e 1040 -c 2 -a 0 -i 43 -k AGT
+ -t 39.450070696 -s 0 -d 2 -p tcp -e 1040 -c 2 -a 0 -i 43 -k RTR 
- -t 39.450070696 -s 0 -d 2 -p tcp -e 1040 -c 2 -a 0 -i 43 -k RTR
h -t 39.450070696 -s 0 -d 2 -p tcp -e 1040 -c 2 -a 0 -i 43 -k RTR
+ -t 39.460036493 -s 2 -d 1 -p tcp -e 1040 -c 2 -a 0 -i 38 -k RTR 
- -t 39.460036493 -s 2 -d 1 -p tcp -e 1040 -c 2 -a 0 -i 38 -k RTR
h -t 39.460036493 -s 2 -d 1 -p tcp -e 1040 -c 2 -a 0 -i 38 -k RTR
r -t 39.469922962 -s 1 -d 1 -p tcp -e 1040 -c 2 -a 0 -i 38 -k AGT
+ -t 39.469922962 -s 1 -d -1 -p ack -e 40 -c 2 -a 0 -i 44 -k AGT 
- -t 39.469922962 -s 1 -d -1 -p ack -e 40 -c 2 -a 0 -i 44 -k AGT
h -t 39.469922962 -s 1 -d -1 -p ack -e 40 -c 2 -a 0 -i 44 -k AGT
+ -t 39.469922962 -s 1 -d 2 -p ack -e 40 -c 2 -a 0 -i 44 -k RTR 
- -t 39.469922962 -s 1 -d 2 -p ack -e 40 -c 2 -a 0 -i 44 -k RTR
h -t 39.469922962 -s 1 -d 2 -p ack -e 40 -c 2 -a 0 -i 44 -k RTR
+ -t 39.471849429 -s 2 -d 0 -p ack -e 40 -c 2 -a 0 -i 40 -k RTR 
- -t 39.471849429 -s 2 -d 0 -p ack -e 40 -c 2 -a 0 -i 40 -k RTR
h -t 39.471849429 -s 2 -d 0 -p ack -e 40 -c 2 -a 0 -i 40 -k RTR
r -t 39.473695225 -s 0 -d 0 -p ack -e 40 -c 2 -a 0 -i 40 -k AGT
+ -t 39.473695225 -s 0 -d -1 -p tcp -e 1040 -c 2 -a 0 -i 45 -k AGT 
- -t 39.473695225 -s 0 -d -1 -p tcp -e 1040 -c 2 -a 0 -i 45 -k AGT