h 0.5 0 8 tcp 40 ------- 0 0.1 4.3 0 0
h 0.5 0 8 cbr 500 ------- 0 0.0 5.2 0 1
+ 0.5 1 0 tcp 40 ------- 1 1.1 5.3 0 2
- 0.5 1 0 tcp 40 ------- 1 1.1 5.3 0 2
+ 0.5 1 0 cbr 500 ------- 1 1.0 6.2 0 3
+ 0.5 2 0 tcp 40 ------- 2 2.1 6.3 0 4
- 0.5 2 0 tcp 40 ------- 2 2.1 6.3 0 4
+ 0.5 2 0 cbr 500 ------- 2 2.0 7.2 0 5
+ 0.5 3 0 tcp 40 ------- 3 3.1 7.3 0 6
- 0.5 3 0 tcp 40 ------- 3 3.1 7.3 0 6
+ 0.5 3 0 cbr 500 ------- 3 3.0 4.2 0 7
h 0.5 4 8 tcp 40 ------- 4 4.1 0.3 0 8
h 0.5 4 8 cbr 500 ------- 4 4.0 1.2 0 9
+ 0.5 5 4 tcp 40 ------- 5 5.1 1.3 0 10
- 0.5 5 4 tcp 40 ------- 5 5.1 1.3 0 10
+ 0.5 5 4 cbr 500 ------- 5 5.0 2.2 0 11
+ 0.5 6 4 tcp 40 ------- 6 6.1 2.3 0 12
- 0.5 6 4 tcp 40 ------- 6 6.1 2.3 0 12
+ 0.5 6 4 cbr 500 ------- 6 6.0 3.2 0 13
+ 0.5 7 4 tcp 40 ------- 7 7.1 3.3 0 14
- 0.5 7 4 tcp 40 ------- 7 7.1 3.3 0 14
+ 0.5 7 4 cbr 500 ------- 7 7.0 0.2 0 15
- 0.50032 1 0 cbr 500 ------- 1 1.0 6.2 0 3
- 0.50032 2 0 cbr 500 ------- 2 2.0 7.2 0 5
- 0.50032 3 0 cbr 500 ------- 3 3.0 4.2 0 7
- 0.50032 5 4 cbr 500 ------- 5 5.0 2.2 0 11
- 0.50032 6 4 cbr 500 ------- 6 6.0 3.2 0 13
- 0.50032 7 4 cbr 500 ------- 7 7.0 0.2 0 15
h 0.505 0 8 cbr 500 ------- 0 0.0 5.2 1 16
+ 0.505 1 0 cbr 500 ------- 1 1.0 6.2 1 17
- 0.505 1 0 cbr 500 ------- 1 1.0 6.2 1 17
+ 0.505 2 0 cbr 500 ------- 2 2.0 7.2 1 18
- 0.505 2 0 cbr 500 ------- 2 2.0 7.2 1 18
+ 0.505 3 0 cbr 500 ------- 3 3.0 4.2 1 19
- 0.505 3 0 cbr 500 ------- 3 3.0 4.2 1 19
h 0.505 4 8 cbr 500 ------- 4 4.0 1.2 1 20
+ 0.505 5 4 cbr 500 ------- 5 5.0 2.2 1 21
- 0.505 5 4 cbr 500 ------- 5 5.0 2.2 1 21
+ 0.505 6 4 cbr 500 ------- 6 6.0 3.2 1 22
- 0.505 6 4 cbr 500 ------- 6 6.0 3.2 1 22
+ 0.505 7 4 cbr 500 ------- 7 7.0 0.2 1 23
- 0.505 7 4 cbr 500 ------- 7 7.0 0.2 1 23
h 0.51 0 8 cbr 500 ------- 0 0.0 5.2 2 24
+ 0.51 1 0 cbr 500 ------- 1 1.0 6.2 2 25
- 0.51 1 0 cbr 500 ------- 1 1.0 6.2 2 25
+ 0.51 2 0 cbr 500 ------- 2 2.0 7.2 2 26
- 0.51 2 0 cbr 500 ------- 2 2.0 7.2 2 26
+ 0.51 3 0 cbr 500 ------- 3 3.0 4.2 2 27
- 0.51 3 0 cbr 500 ------- 3 3.0 4.2 2 27
h 0.51 4 8 cbr 500 ------- 4 4.0 1.2 2 28
+ 0.51 5 4 cbr 500 ------- 5 5.0 2.2 2 29
- 0.51 5 4 cbr 500 ------- 5 5.0 2.2 2 29
+ 0.51 6 4 cbr 500 ------- 6 6.0 3.2 2 30
- 0.51 6 4 cbr 500 ------- 6 6.0 3.2 2 30
+ 0.51 7 4 cbr 500 ------- 7 7.0 0.2 2 31
- 0.51 7 4 cbr 500 ------- 7 7.0 0.2 2 31
r 0.51032 1 0 tcp 40 ------- 1 1.1 5.3 0 2
h 0.51032 0 8 tcp 40 ------- 1 1.1 5.3 0 2
r 0.51032 2 0 tcp 40 ------- 2 2.1 6.3 0 4
h 0.51032 0 8 tcp 40 ------- 2 2.1 6.3 0 4
r 0.51032 3 0 tcp 40 ------- 3 3.1 7.3 0 6
h 0.51032 0 8 tcp 40 ------- 3 3.1 7.3 0 6
r 0.51032 5 4 tcp 40 ------- 5 5.1 1.3 0 10
h 0.51032 4 8 tcp 40 ------- 5 5.1 1.3 0 10
r 0.51032 6 4 tcp 40 ------- 6 6.1 2.3 0 12
h 0.51032 4 8 tcp 40 ------- 6 6.1 2.3 0 12
r 0.51032 7 4 tcp 40 ------- 7 7.1 3.3 0 14
h 0.51032 4 8 tcp 40 ------- 7 7.1 3.3 0 14
r 0.51432 1 0 cbr 500 ------- 1 1.0 6.2 0 3
h 0.51432 0 8 cbr 500 ------- 1 1.0 6.2 0 3
r 0.51432 2 0 cbr 500 ------- 2 2.0 7.2 0 5
h 0.51432 0 8 cbr 500 ------- 2 2.0 7.2 0 5
r 0.51432 3 0 cbr 500 ------- 3 3.0 4.2 0 7
h 0.51432 0 8 cbr 500 ------- 3 3.0 4.2 0 7
r 0.51432 5 4 cbr 500 ------- 5 5.0 2.2 0 11
h 0.51432 4 8 cbr 500 ------- 5 5.0 2.2 0 11
r 0.51432 6 4 cbr 500 ------- 6 6.0 3.2 0 13
h 0.51432 4 8 cbr 500 ------- 6 6.0 3.2 0 13
r 0.51432 7 4 cbr 500 ------- 7 7.0 0.2 0 15
h 0.51432 4 8 cbr 500 ------- 7 7.0 0.2 0 15
h 0.515 0 8 cbr 500 ------- 0 0.0 5.2 3 32
+ 0.515 1 0 cbr 500 ------- 1 1.0 6.2 3 33
- 0.515 1 0 cbr 500 ------- 1 1.0 6.2 3 33
+ 0.515 2 0 cbr 500 ------- 2 2.0 7.2 3 34
- 0.515 2 0 cbr 500 ------- 2 2.0 7.2 3 34
+ 0.515 3 0 cbr 500 ------- 3 3.0 4.2 3 35
- 0.515 3 0 cbr 500 ------- 3 3.0 4.2 3 35
h 0.515 4 8 cbr 500 ------- 4 4.0 1.2 3 36
+ 0.515 5 4 cbr 500 ------- 5 5.0 2.2 3 37
- 0.515 5 4 cbr 500 ------- 5 5.0 2.2 3 37
+ 0.515 6 4 cbr 500 ------- 6 6.0 3.2 3 38
- 0.515 6 4 cbr 500 ------- 6 6.0 3.2 3 38
+ 0.515 7 4 cbr 500 ------- 7 7.0 0.2 3 39
- 0.515 7 4 cbr 500 ------- 7 7.0 0.2 3 39
r 0.519 1 0 cbr 500 ------- 1 1.0 6.2 1 17
h 0.519 0 8 cbr 500 ------- 1 1.0 6.2 1 17
r 0.519 2 0 cbr 500 ------- 2 2.0 7.2 1 18
h 0.519 0 8 cbr 500 ------- 2 2.0 7.2 1 18
r 0.519 3 0 cbr 500 ------- 3 3.0 4.2 1 19
h 0.519 0 8 cbr 500 ------- 3 3.0 4.2 1 19
r 0.519 5 4 cbr 500 ------- 5 5.0 2.2 1 21
h 0.519 4 8 cbr 500 ------- 5 5.0 2.2 1 21
r 0.519 6 4 cbr 500 ------- 6 6.0 3.2 1 22
h 0.519 4 8 cbr 500 ------- 6 6.0 3.2 1 22
r 0.519 7 4 cbr 500 ------- 7 7.0 0.2 1 23
h 0.519 4 8 cbr 500 ------- 7 7.0 0.2 1 23
h 0.52 0 8 cbr 500 ------- 0 0.0 5.2 4 40
+ 0.52 1 0 cbr 500 ------- 1 1.0 6.2 4 41
- 0.52 1 0 cbr 500 ------- 1 1.0 6.2 4 41
+ 0.52 2 0 cbr 500 ------- 2 2.0 7.2 4 42
- 0.52 2 0 cbr 500 ------- 2 2.0 7.2 4 42
+ 0.52 3 0 cbr 500 ------- 3 3.0 4.2 4 43
- 0.52 3 0 cbr 500 ------- 3 3.0 4.2 4 43
h 0.52 4 8 cbr 500 ------- 4 4.0 1.2 4 44
+ 0.52 5 4 cbr 500 ------- 5 5.0 2.2 4 45
- 0.52 5 4 cbr 500 ------- 5 5.0 2.2 4 45
+ 0.52 6 4 cbr 500 ------- 6 6.0 3.2 4 46
- 0.52 6 4 cbr 500 ------- 6 6.0 3.2 4 46
+ 0.52 7 4 cbr 500 ------- 7 7.0 0.2 4 47
- 0.52 7 4 cbr 500 ------- 7 7.0 0.2 4 47
r 0.524 1 0 cbr 500 ------- 1 1.0 6.2 2 25
h 0.524 0 8 cbr 500 ------- 1 1.0 6.2 2 25
r 0.524 2 0 cbr 500 ------- 2 2.0 7.2 2 26
h 0.524 0 8 cbr 500 ------- 2 2.0 7.2 2 26
r 0.524 3 0 cbr 500 ------- 3 3.0 4.2 2 27
h 0.524 0 8 cbr 500 ------- 3 3.0 4.2 2 27
r 0.524 5 4 cbr 500 ------- 5 5.0 2.2 2 29
h 0.524 4 8 cbr 500 ------- 5 5.0 2.2 2 29
r 0.524 6 4 cbr 500 ------- 6 6.0 3.2 2 30
h 0.524 4 8 cbr 500 ------- 6 6.0 3.2 2 30
r 0.524 7 4 cbr 500 ------- 7 7.0 0.2 2 31
h 0.524 4 8 cbr 500 ------- 7 7.0 0.2 2 31
h 0.525 0 8 cbr 500 ------- 0 0.0 5.2 5 48
+ 0.525 1 0 cbr 500 ------- 1 1.0 6.2 5 49
- 0.525 1 0 cbr 500 ------- 1 1.0 6.2 5 49
+ 0.525 2 0 cbr 500 ------- 2 2.0 7.2 5 50
- 0.525 2 0 cbr 500 ------- 2 2.0 7.2 5 50
+ 0.525 3 0 cbr 500 ------- 3 3.0 4.2 5 51
- 0.525 3 0 cbr 500 ------- 3 3.0 4.2 5 51
h 0.525 4 8 cbr 500 ------- 4 4.0 1.2 5 52
+ 0.525 5 4 cbr 500 ------- 5 5.0 2.2 5 53
- 0.525 5 4 cbr 500 ------- 5 5.0 2.2 5 53
+ 0.525 6 4 cbr 500 ------- 6 6.0 3.2 5 54
- 0.525 6 4 cbr 500 ------- 6 6.0 3.2 5 54
+ 0.525 7 4 cbr 500 ------- 7 7.0 0.2 5 55
- 0.525 7 4 cbr 500 ------- 7 7.0 0.2 5 55
r 0.529 1 0 cbr 500 ------- 1 1.0 6.2 3 33
h 0.529 0 8 cbr 500 ------- 1 1.0 6.2 3 33
r 0.529 2 0 cbr 500 ------- 2 2.0 7.2 3 34
h 0.529 0 8 cbr 500 ------- 2 2.0 7.2 3 34
r 0.529 3 0 cbr 500 ------- 3 3.0 4.2 3 35
h 0.529 0 8 cbr 500 ------- 3 3.0 4.2 3 35
r 0.529 5 4 cbr 500 ------- 5 5.0 2.2 3 37
h 0.529 4 8 cbr 500 ------- 5 5.0 2.2 3 37
r 0.529 6 4 cbr 500 ------- 6 6.0 3.2 3 38
h 0.529 4 8 cbr 500 ------- 6 6.0 3.2 3 38
r 0.529 7 4 cbr 500 ------- 7 7.0 0.2 3 39
h 0.529 4 8 cbr 500 ------- 7 7.0 0.2 3 39
h 0.53 0 8 cbr 500 ------- 0 0.0 5.2 6 56
+ 0.53 1 0 cbr 500 ------- 1 1.0 6.2 6 57
- 0.53 1 0 cbr 500 ------- 1 1.0 6.2 6 57
+ 0.53 2 0 cbr 500 ------- 2 2.0 7.2 6 58
- 0.53 2 0 cbr 500 ------- 2 2.0 7.2 6 58
+ 0.53 3 0 cbr 500 ------- 3 3.0 4.2 6 59
- 0.53 3 0 cbr 500 ------- 3 3.0 4.2 6 59
h 0.53 4 8 cbr 500 ------- 4 4.0 1.2 6 60
+ 0.53 5 4 cbr 500 ------- 5 5.0 2.2 6 61
- 0.53 5 4 cbr 500 ------- 5 5.0 2.2 6 61
+ 0.53 6 4 cbr 500 ------- 6 6.0 3.2 6 62
- 0.53 6 4 cbr 500 ------- 6 6.0 3.2 6 62
+ 0.53 7 4 cbr 500 ------- 7 7.0 0.2 6 63
- 0.53 7 4 cbr 500 ------- 7 7.0 0.2 6 63
r 0.534 1 0 cbr 500 ------- 1 1.0 6.2 4 41
h 0.534 0 8 cbr 500 ------- 1 1.0 6.2 4 41
r 0.534 2 0 cbr 500 ------- 2 2.0 7.2 4 42
h 0.534 0 8 cbr 500 ------- 2 2.0 7.2 4 42
r 0.534 3 0 cbr 500 ------- 3 3.0 4.2 4 43
h 0.534 0 8 cbr 500 ------- 3 3.0 4.2 4 43
r 0.534 5 4 cbr 500 ------- 5 5.0 2.2 4 45
h 0.534 4 8 cbr 500 ------- 5 5.0 2.2 4 45
r 0.534 6 4 cbr 500 ------- 6 6.0 3.2 4 46
h 0.534 4 8 cbr 500 ------- 6 6.0 3.2 4 46
r 0.534 7 4 cbr 500 ------- 7 7.0 0.2 4 47
h 0.534 4 8 cbr 500 ------- 7 7.0 0.2 4 47
h 0.535 0 8 cbr 500 ------- 0 0.0 5.2 7 64
+ 0.535 1 0 cbr 500 ------- 1 1.0 6.2 7 65
- 0.535 1 0 cbr 500 ------- 1 1.0 6.2 7 65
+ 0.535 2 0 cbr 500 ------- 2 2.0 7.2 7 66
- 0.535 2 0 cbr 500 ------- 2 2.0 7.2 7 66
+ 0.535 3 0 cbr 500 ------- 3 3.0 4.2 7 67
- 0.535 3 0 cbr 500 ------- 3 3.0 4.2 7 67
h 0.535 4 8 cbr 500 ------- 4 4.0 1.2 7 68
+ 0.535 5 4 cbr 500 ------- 5 5.0 2.2 7 69
- 0.535 5 4 cbr 500 ------- 5 5.0 2.2 7 69
+ 0.535 6 4 cbr 500 ------- 6 6.0 3.2 7 70
- 0.535 6 4 cbr 500 ------- 6 6.0 3.2 7 70
+ 0.535 7 4 cbr 500 ------- 7 7.0 0.2 7 71
- 0.535 7 4 cbr 500 ------- 7 7.0 0.2 7 71
r 0.539 1 0 cbr 500 ------- 1 1.0 6.2 5 49
h 0.539 0 8 cbr 500 ------- 1 1.0 6.2 5 49
r 0.539 2 0 cbr 500 ------- 2 2.0 7.2 5 50
h 0.539 0 8 cbr 500 ------- 2 2.0 7.2 5 50
r 0.539 3 0 cbr 500 ------- 3 3.0 4.2 5 51
h 0.539 0 8 cbr 500 ------- 3 3.0 4.2 5 51
r 0.539 5 4 cbr 500 ------- 5 5.0 2.2 5 53
h 0.539 4 8 cbr 500 ------- 5 5.0 2.2 5 53
r 0.539 6 4 cbr 500 ------- 6 6.0 3.2 5 54
h 0.539 4 8 cbr 500 ------- 6 6.0 3.2 5 54
r 0.539 7 4 cbr 500 ------- 7 7.0 0.2 5 55
h 0.539 4 8 cbr 500 ------- 7 7.0 0.2 5 55
+ 0.54 0 8 tcp 40 ------- 0 0.1 4.3 0 0
- 0.54 0 8 tcp 40 ------- 0 0.1 4.3 0 0
+ 0.54 0 8 cbr 500 ------- 0 0.0 5.2 0 1
+ 0.54 4 8 tcp 40 ------- 4 4.1 0.3 0 8
- 0.54 4 8 tcp 40 ------- 4 4.1 0.3 0 8
+ 0.54 4 8 cbr 500 ------- 4 4.0 1.2 0 9
h 0.54 0 8 cbr 500 ------- 0 0.0 5.2 8 72
+ 0.54 1 0 cbr 500 ------- 1 1.0 6.2 8 73
- 0.54 1 0 cbr 500 ------- 1 1.0 6.2 8 73
+ 0.54 2 0 cbr 500 ------- 2 2.0 7.2 8 74
- 0.54 2 0 cbr 500 ------- 2 2.0 7.2 8 74
+ 0.54 3 0 cbr 500 ------- 3 3.0 4.2 8 75
- 0.54 3 0 cbr 500 ------- 3 3.0 4.2 8 75
h 0.54 4 8 cbr 500 ------- 4 4.0 1.2 8 76
+ 0.54 5 4 cbr 500 ------- 5 5.0 2.2 8 77
- 0.54 5 4 cbr 500 ------- 5 5.0 2.2 8 77
+ 0.54 6 4 cbr 500 ------- 6 6.0 3.2 8 78
- 0.54 6 4 cbr 500 ------- 6 6.0 3.2 8 78
+ 0.54 7 4 cbr 500 ------- 7 7.0 0.2 8 79
- 0.54 7 4 cbr 500 ------- 7 7.0 0.2 8 79
- 0.540416 0 8 cbr 500 ------- 0 0.0 5.2 0 1
- 0.540416 4 8 cbr 500 ------- 4 4.0 1.2 0 9
r 0.544 1 0 cbr 500 ------- 1 1.0 6.2 6 57
h 0.544 0 8 cbr 500 ------- 1 1.0 6.2 6 57
r 0.544 2 0 cbr 500 ------- 2 2.0 7.2 6 58
h 0.544 0 8 cbr 500 ------- 2 2.0 7.2 6 58
r 0.544 3 0 cbr 500 ------- 3 3.0 4.2 6 59
h 0.544 0 8 cbr 500 ------- 3 3.0 4.2 6 59
r 0.544 5 4 cbr 500 ------- 5 5.0 2.2 6 61
h 0.544 4 8 cbr 500 ------- 5 5.0 2.2 6 61
r 0.544 6 4 cbr 500 ------- 6 6.0 3.2 6 62
h 0.544 4 8 cbr 500 ------- 6 6.0 3.2 6 62
r 0.544 7 4 cbr 500 ------- 7 7.0 0.2 6 63
h 0.544 4 8 cbr 500 ------- 7 7.0 0.2 6 63
+ 0.545 0 8 cbr 500 ------- 0 0.0 5.2 1 16
- 0.545 0 8 cbr 500 ------- 0 0.0 5.2 1 16
+ 0.545 4 8 cbr 500 ------- 4 4.0 1.2 1 20
- 0.545 4 8 cbr 500 ------- 4 4.0 1.2 1 20
h 0.545 0 8 cbr 500 ------- 0 0.0 5.2 9 80
+ 0.545 1 0 cbr 500 ------- 1 1.0 6.2 9 81
- 0.545 1 0 cbr 500 ------- 1 1.0 6.2 9 81
+ 0.545 2 0 cbr 500 ------- 2 2.0 7.2 9 82
- 0.545 2 0 cbr 500 ------- 2 2.0 7.2 9 82
+ 0.545 3 0 cbr 500 ------- 3 3.0 4.2 9 83
- 0.545 3 0 cbr 500 ------- 3 3.0 4.2 9 83
h 0.545 4 8 cbr 500 ------- 4 4.0 1.2 9 84
+ 0.545 5 4 cbr 500 ------- 5 5.0 2.2 9 85
- 0.545 5 4 cbr 500 ------- 5 5.0 2.2 9 85
+ 0.545 6 4 cbr 500 ------- 6 6.0 3.2 9 86
- 0.545 6 4 cbr 500 ------- 6 6.0 3.2 9 86
+ 0.545 7 4 cbr 500 ------- 7 7.0 0.2 9 87
- 0.545 7 4 cbr 500 ------- 7 7.0 0.2 9 87
r 0.549 1 0 cbr 500 ------- 1 1.0 6.2 7 65
h 0.549 0 8 cbr 500 ------- 1 1.0 6.2 7 65
r 0.549 2 0 cbr 500 ------- 2 2.0 7.2 7 66
h 0.549 0 8 cbr 500 ------- 2 2.0 7.2 7 66
r 0.549 3 0 cbr 500 ------- 3 3.0 4.2 7 67
h 0.549 0 8 cbr 500 ------- 3 3.0 4.2 7 67
r 0.549 5 4 cbr 500 ------- 5 5.0 2.2 7 69
h 0.549 4 8 cbr 500 ------- 5 5.0 2.2 7 69
r 0.549 6 4 cbr 500 ------- 6 6.0 3.2 7 70
h 0.549 4 8 cbr 500 ------- 6 6.0 3.2 7 70
r 0.549 7 4 cbr 500 ------- 7 7.0 0.2 7 71
h 0.549 4 8 cbr 500 ------- 7 7.0 0.2 7 71
+ 0.55 0 8 cbr 500 ------- 0 0.0 5.2 2 24
- 0.55 0 8 cbr 500 ------- 0 0.0 5.2 2 24
+ 0.55 4 8 cbr 500 ------- 4 4.0 1.2 2 28
- 0.55 4 8 cbr 500 ------- 4 4.0 1.2 2 28
h 0.55 0 8 cbr 500 ------- 0 0.0 5.2 10 88
+ 0.55 1 0 cbr 500 ------- 1 1.0 6.2 10 89
- 0.55 1 0 cbr 500 ------- 1 1.0 6.2 10 89
+ 0.55 2 0 cbr 500 ------- 2 2.0 7.2 10 90
- 0.55 2 0 cbr 500 ------- 2 2.0 7.2 10 90
+ 0.55 3 0 cbr 500 ------- 3 3.0 4.2 10 91
- 0.55 3 0 cbr 500 ------- 3 3.0 4.2 10 91
h 0.55 4 8 cbr 500 ------- 4 4.0 1.2 10 92
+ 0.55 5 4 cbr 500 ------- 5 5.0 2.2 10 93
- 0.55 5 4 cbr 500 ------- 5 5.0 2.2 10 93
+ 0.55 6 4 cbr 500 ------- 6 6.0 3.2 10 94
- 0.55 6 4 cbr 500 ------- 6 6.0 3.2 10 94
+ 0.55 7 4 cbr 500 ------- 7 7.0 0.2 10 95
- 0.55 7 4 cbr 500 ------- 7 7.0 0.2 10 95
+ 0.55032 0 8 tcp 40 ------- 1 1.1 5.3 0 2
+ 0.55032 0 8 tcp 40 ------- 2 2.1 6.3 0 4
+ 0.55032 0 8 tcp 40 ------- 3 3.1 7.3 0 6
+ 0.55032 4 8 tcp 40 ------- 5 5.1 1.3 0 10
+ 0.55032 4 8 tcp 40 ------- 6 6.1 2.3 0 12
+ 0.55032 4 8 tcp 40 ------- 7 7.1 3.3 0 14
- 0.552256 0 8 tcp 40 ------- 1 1.1 5.3 0 2
- 0.552256 4 8 tcp 40 ------- 5 5.1 1.3 0 10
- 0.552672 0 8 tcp 40 ------- 2 2.1 6.3 0 4
- 0.552672 4 8 tcp 40 ------- 6 6.1 2.3 0 12
- 0.553088 0 8 tcp 40 ------- 3 3.1 7.3 0 6
- 0.553088 4 8 tcp 40 ------- 7 7.1 3.3 0 14
r 0.554 1 0 cbr 500 ------- 1 1.0 6.2 8 73
h 0.554 0 8 cbr 500 ------- 1 1.0 6.2 8 73
r 0.554 2 0 cbr 500 ------- 2 2.0 7.2 8 74
h 0.554 0 8 cbr 500 ------- 2 2.0 7.2 8 74
r 0.554 3 0 cbr 500 ------- 3 3.0 4.2 8 75
h 0.554 0 8 cbr 500 ------- 3 3.0 4.2 8 75
r 0.554 5 4 cbr 500 ------- 5 5.0 2.2 8 77
h 0.554 4 8 cbr 500 ------- 5 5.0 2.2 8 77
r 0.554 6 4 cbr 500 ------- 6 6.0 3.2 8 78
h 0.554 4 8 cbr 500 ------- 6 6.0 3.2 8 78
r 0.554 7 4 cbr 500 ------- 7 7.0 0.2 8 79
h 0.554 4 8 cbr 500 ------- 7 7.0 0.2 8 79
+ 0.55432 0 8 cbr 500 ------- 1 1.0 6.2 0 3
- 0.55432 0 8 cbr 500 ------- 1 1.0 6.2 0 3
+ 0.55432 0 8 cbr 500 ------- 2 2.0 7.2 0 5
+ 0.55432 0 8 cbr 500 ------- 3 3.0 4.2 0 7
+ 0.55432 4 8 cbr 500 ------- 5 5.0 2.2 0 11
- 0.55432 4 8 cbr 500 ------- 5 5.0 2.2 0 11
+ 0.55432 4 8 cbr 500 ------- 6 6.0 3.2 0 13
+ 0.55432 4 8 cbr 500 ------- 7 7.0 0.2 0 15
+ 0.555 0 8 cbr 500 ------- 0 0.0 5.2 3 32
+ 0.555 4 8 cbr 500 ------- 4 4.0 1.2 3 36
h 0.555 0 8 cbr 500 ------- 0 0.0 5.2 11 96
+ 0.555 1 0 cbr 500 ------- 1 1.0 6.2 11 97
- 0.555 1 0 cbr 500 ------- 1 1.0 6.2 11 97
+ 0.555 2 0 cbr 500 ------- 2 2.0 7.2 11 98
- 0.555 2 0 cbr 500 ------- 2 2.0 7.2 11 98
+ 0.555 3 0 cbr 500 ------- 3 3.0 4.2 11 99
- 0.555 3 0 cbr 500 ------- 3 3.0 4.2 11 99
h 0.555 4 8 cbr 500 ------- 4 4.0 1.2 11 100
+ 0.555 5 4 cbr 500 ------- 5 5.0 2.2 11 101
- 0.555 5 4 cbr 500 ------- 5 5.0 2.2 11 101
+ 0.555 6 4 cbr 500 ------- 6 6.0 3.2 11 102
- 0.555 6 4 cbr 500 ------- 6 6.0 3.2 11 102
+ 0.555 7 4 cbr 500 ------- 7 7.0 0.2 11 103
- 0.555 7 4 cbr 500 ------- 7 7.0 0.2 11 103
- 0.556576 0 8 cbr 500 ------- 2 2.0 7.2 0 5
- 0.556576 4 8 cbr 500 ------- 6 6.0 3.2 0 13
- 0.558832 0 8 cbr 500 ------- 3 3.0 4.2 0 7
- 0.558832 4 8 cbr 500 ------- 7 7.0 0.2 0 15
+ 0.559 0 8 cbr 500 ------- 1 1.0 6.2 1 17
+ 0.559 0 8 cbr 500 ------- 2 2.0 7.2 1 18
+ 0.559 0 8 cbr 500 ------- 3 3.0 4.2 1 19
+ 0.559 4 8 cbr 500 ------- 5 5.0 2.2 1 21
+ 0.559 4 8 cbr 500 ------- 6 6.0 3.2 1 22
+ 0.559 4 8 cbr 500 ------- 7 7.0 0.2 1 23
r 0.559 1 0 cbr 500 ------- 1 1.0 6.2 9 81
h 0.559 0 8 cbr 500 ------- 1 1.0 6.2 9 81
r 0.559 2 0 cbr 500 ------- 2 2.0 7.2 9 82
h 0.559 0 8 cbr 500 ------- 2 2.0 7.2 9 82
r 0.559 3 0 cbr 500 ------- 3 3.0 4.2 9 83
h 0.559 0 8 cbr 500 ------- 3 3.0 4.2 9 83
r 0.559 5 4 cbr 500 ------- 5 5.0 2.2 9 85
h 0.559 4 8 cbr 500 ------- 5 5.0 2.2 9 85
r 0.559 6 4 cbr 500 ------- 6 6.0 3.2 9 86
h 0.559 4 8 cbr 500 ------- 6 6.0 3.2 9 86
r 0.559 7 4 cbr 500 ------- 7 7.0 0.2 9 87
h 0.559 4 8 cbr 500 ------- 7 7.0 0.2 9 87
+ 0.56 0 8 cbr 500 ------- 0 0.0 5.2 4 40
+ 0.56 4 8 cbr 500 ------- 4 4.0 1.2 4 44
h 0.56 0 8 cbr 500 ------- 0 0.0 5.2 12 104
+ 0.56 1 0 cbr 500 ------- 1 1.0 6.2 12 105
- 0.56 1 0 cbr 500 ------- 1 1.0 6.2 12 105
+ 0.56 2 0 cbr 500 ------- 2 2.0 7.2 12 106
- 0.56 2 0 cbr 500 ------- 2 2.0 7.2 12 106
+ 0.56 3 0 cbr 500 ------- 3 3.0 4.2 12 107
- 0.56 3 0 cbr 500 ------- 3 3.0 4.2 12 107
h 0.56 4 8 cbr 500 ------- 4 4.0 1.2 12 108
+ 0.56 5 4 cbr 500 ------- 5 5.0 2.2 12 109
- 0.56 5 4 cbr 500 ------- 5 5.0 2.2 12 109
+ 0.56 6 4 cbr 500 ------- 6 6.0 3.2 12 110
- 0.56 6 4 cbr 500 ------- 6 6.0 3.2 12 110
+ 0.56 7 4 cbr 500 ------- 7 7.0 0.2 12 111
- 0.56 7 4 cbr 500 ------- 7 7.0 0.2 12 111
- 0.561088 0 8 cbr 500 ------- 0 0.0 5.2 3 32
- 0.561088 4 8 cbr 500 ------- 4 4.0 1.2 3 36
- 0.563344 0 8 cbr 500 ------- 1 1.0 6.2 1 17
- 0.563344 4 8 cbr 500 ------- 5 5.0 2.2 1 21
+ 0.564 0 8 cbr 500 ------- 1 1.0 6.2 2 25
+ 0.564 0 8 cbr 500 ------- 2 2.0 7.2 2 26
+ 0.564 0 8 cbr 500 ------- 3 3.0 4.2 2 27
+ 0.564 4 8 cbr 500 ------- 5 5.0 2.2 2 29
+ 0.564 4 8 cbr 500 ------- 6 6.0 3.2 2 30
+ 0.564 4 8 cbr 500 ------- 7 7.0 0.2 2 31
r 0.564 1 0 cbr 500 ------- 1 1.0 6.2 10 89
h 0.564 0 8 cbr 500 ------- 1 1.0 6.2 10 89
r 0.564 2 0 cbr 500 ------- 2 2.0 7.2 10 90
h 0.564 0 8 cbr 500 ------- 2 2.0 7.2 10 90
r 0.564 3 0 cbr 500 ------- 3 3.0 4.2 10 91
h 0.564 0 8 cbr 500 ------- 3 3.0 4.2 10 91
r 0.564 5 4 cbr 500 ------- 5 5.0 2.2 10 93
h 0.564 4 8 cbr 500 ------- 5 5.0 2.2 10 93
r 0.564 6 4 cbr 500 ------- 6 6.0 3.2 10 94
h 0.564 4 8 cbr 500 ------- 6 6.0 3.2 10 94
r 0.564 7 4 cbr 500 ------- 7 7.0 0.2 10 95
h 0.564 4 8 cbr 500 ------- 7 7.0 0.2 10 95
+ 0.565 0 8 cbr 500 ------- 0 0.0 5.2 5 48
+ 0.565 4 8 cbr 500 ------- 4 4.0 1.2 5 52
h 0.565 0 8 cbr 500 ------- 0 0.0 5.2 13 112
+ 0.565 1 0 cbr 500 ------- 1 1.0 6.2 13 113
- 0.565 1 0 cbr 500 ------- 1 1.0 6.2 13 113
+ 0.565 2 0 cbr 500 ------- 2 2.0 7.2 13 114
- 0.565 2 0 cbr 500 ------- 2 2.0 7.2 13 114
+ 0.565 3 0 cbr 500 ------- 3 3.0 4.2 13 115
- 0.565 3 0 cbr 500 ------- 3 3.0 4.2 13 115
h 0.565 4 8 cbr 500 ------- 4 4.0 1.2 13 116
+ 0.565 5 4 cbr 500 ------- 5 5.0 2.2 13 117
- 0.565 5 4 cbr 500 ------- 5 5.0 2.2 13 117
+ 0.565 6 4 cbr 500 ------- 6 6.0 3.2 13 118
- 0.565 6 4 cbr 500 ------- 6 6.0 3.2 13 118
+ 0.565 7 4 cbr 500 ------- 7 7.0 0.2 13 119
- 0.565 7 4 cbr 500 ------- 7 7.0 0.2 13 119
- 0.5656 0 8 cbr 500 ------- 2 2.0 7.2 1 18
- 0.5656 4 8 cbr 500 ------- 6 6.0 3.2 1 22
- 0.567856 0 8 cbr 500 ------- 3 3.0 4.2 1 19
- 0.567856 4 8 cbr 500 ------- 7 7.0 0.2 1 23
+ 0.569 0 8 cbr 500 ------- 1 1.0 6.2 3 33
+ 0.569 0 8 cbr 500 ------- 2 2.0 7.2 3 34
+ 0.569 0 8 cbr 500 ------- 3 3.0 4.2 3 35
+ 0.569 4 8 cbr 500 ------- 5 5.0 2.2 3 37
+ 0.569 4 8 cbr 500 ------- 6 6.0 3.2 3 38
+ 0.569 4 8 cbr 500 ------- 7 7.0 0.2 3 39
r 0.569 1 0 cbr 500 ------- 1 1.0 6.2 11 97
h 0.569 0 8 cbr 500 ------- 1 1.0 6.2 11 97
r 0.569 2 0 cbr 500 ------- 2 2.0 7.2 11 98
h 0.569 0 8 cbr 500 ------- 2 2.0 7.2 11 98
r 0.569 3 0 cbr 500 ------- 3 3.0 4.2 11 99
h 0.569 0 8 cbr 500 ------- 3 3.0 4.2 11 99
r 0.569 5 4 cbr 500 ------- 5 5.0 2.2 11 101
h 0.569 4 8 cbr 500 ------- 5 5.0 2.2 11 101
r 0.569 6 4 cbr 500 ------- 6 6.0 3.2 11 102
h 0.569 4 8 cbr 500 ------- 6 6.0 3.2 11 102
r 0.569 7 4 cbr 500 ------- 7 7.0 0.2 11 103
h 0.569 4 8 cbr 500 ------- 7 7.0 0.2 11 103
+ 0.57 0 8 cbr 500 ------- 0 0.0 5.2 6 56
+ 0.57 4 8 cbr 500 ------- 4 4.0 1.2 6 60
h 0.57 0 8 cbr 500 ------- 0 0.0 5.2 14 120
+ 0.57 1 0 cbr 500 ------- 1 1.0 6.2 14 121
- 0.57 1 0 cbr 500 ------- 1 1.0 6.2 14 121
+ 0.57 2 0 cbr 500 ------- 2 2.0 7.2 14 122
- 0.57 2 0 cbr 500 ------- 2 2.0 7.2 14 122
+ 0.57 3 0 cbr 500 ------- 3 3.0 4.2 14 123
- 0.57 3 0 cbr 500 ------- 3 3.0 4.2 14 123
h 0.57 4 8 cbr 500 ------- 4 4.0 1.2 14 124
+ 0.57 5 4 cbr 500 ------- 5 5.0 2.2 14 125
- 0.57 5 4 cbr 500 ------- 5 5.0 2.2 14 125
+ 0.57 6 4 cbr 500 ------- 6 6.0 3.2 14 126
- 0.57 6 4 cbr 500 ------- 6 6.0 3.2 14 126
+ 0.57 7 4 cbr 500 ------- 7 7.0 0.2 14 127
- 0.57 7 4 cbr 500 ------- 7 7.0 0.2 14 127
- 0.570112 0 8 cbr 500 ------- 0 0.0 5.2 4 40
- 0.570112 4 8 cbr 500 ------- 4 4.0 1.2 4 44
- 0.572368 0 8 cbr 500 ------- 1 1.0 6.2 2 25
- 0.572368 4 8 cbr 500 ------- 5 5.0 2.2 2 29
+ 0.574 0 8 cbr 500 ------- 1 1.0 6.2 4 41
+ 0.574 0 8 cbr 500 ------- 2 2.0 7.2 4 42
+ 0.574 0 8 cbr 500 ------- 3 3.0 4.2 4 43
+ 0.574 4 8 cbr 500 ------- 5 5.0 2.2 4 45
+ 0.574 4 8 cbr 500 ------- 6 6.0 3.2 4 46
+ 0.574 4 8 cbr 500 ------- 7 7.0 0.2 4 47
r 0.574 1 0 cbr 500 ------- 1 1.0 6.2 12 105
h 0.574 0 8 cbr 500 ------- 1 1.0 6.2 12 105
r 0.574 2 0 cbr 500 ------- 2 2.0 7.2 12 106
h 0.574 0 8 cbr 500 ------- 2 2.0 7.2 12 106
r 0.574 3 0 cbr 500 ------- 3 3.0 4.2 12 107
h 0.574 0 8 cbr 500 ------- 3 3.0 4.2 12 107
r 0.574 5 4 cbr 500 ------- 5 5.0 2.2 12 109
h 0.574 4 8 cbr 500 ------- 5 5.0 2.2 12 109
r 0.574 6 4 cbr 500 ------- 6 6.0 3.2 12 110
h 0.574 4 8 cbr 500 ------- 6 6.0 3.2 12 110
r 0.574 7 4 cbr 500 ------- 7 7.0 0.2 12 111
h 0.574 4 8 cbr 500 ------- 7 7.0 0.2 12 111
- 0.574624 0 8 cbr 500 ------- 2 2.0 7.2 2 26
- 0.574624 4 8 cbr 500 ------- 6 6.0 3.2 2 30
+ 0.575 0 8 cbr 500 ------- 0 0.0 5.2 7 64
+ 0.575 4 8 cbr 500 ------- 4 4.0 1.2 7 68
h 0.575 0 8 cbr 500 ------- 0 0.0 5.2 15 128
+ 0.575 1 0 cbr 500 ------- 1 1.0 6.2 15 129
- 0.575 1 0 cbr 500 ------- 1 1.0 6.2 15 129
+ 0.575 2 0 cbr 500 ------- 2 2.0 7.2 15 130
- 0.575 2 0 cbr 500 ------- 2 2.0 7.2 15 130
+ 0.575 3 0 cbr 500 ------- 3 3.0 4.2 15 131
- 0.575 3 0 cbr 500 ------- 3 3.0 4.2 15 131
h 0.575 4 8 cbr 500 ------- 4 4.0 1.2 15 132
+ 0.575 5 4 cbr 500 ------- 5 5.0 2.2 15 133
- 0.575 5 4 cbr 500 ------- 5 5.0 2.2 15 133
+ 0.575 6 4 cbr 500 ------- 6 6.0 3.2 15 134
- 0.575 6 4 cbr 500 ------- 6 6.0 3.2 15 134
+ 0.575 7 4 cbr 500 ------- 7 7.0 0.2 15 135
- 0.575 7 4 cbr 500 ------- 7 7.0 0.2 15 135
- 0.57688 0 8 cbr 500 ------- 3 3.0 4.2 2 27
- 0.57688 4 8 cbr 500 ------- 7 7.0 0.2 2 31
+ 0.579 0 8 cbr 500 ------- 1 1.0 6.2 5 49
+ 0.579 0 8 cbr 500 ------- 2 2.0 7.2 5 50
+ 0.579 0 8 cbr 500 ------- 3 3.0 4.2 5 51
+ 0.579 4 8 cbr 500 ------- 5 5.0 2.2 5 53
+ 0.579 4 8 cbr 500 ------- 6 6.0 3.2 5 54
+ 0.579 4 8 cbr 500 ------- 7 7.0 0.2 5 55
r 0.579 1 0 cbr 500 ------- 1 1.0 6.2 13 113
h 0.579 0 8 cbr 500 ------- 1 1.0 6.2 13 113
r 0.579 2 0 cbr 500 ------- 2 2.0 7.2 13 114
h 0.579 0 8 cbr 500 ------- 2 2.0 7.2 13 114
r 0.579 3 0 cbr 500 ------- 3 3.0 4.2 13 115
h 0.579 0 8 cbr 500 ------- 3 3.0 4.2 13 115
r 0.579 5 4 cbr 500 ------- 5 5.0 2.2 13 117
h 0.579 4 8 cbr 500 ------- 5 5.0 2.2 13 117
r 0.579 6 4 cbr 500 ------- 6 6.0 3.2 13 118
h 0.579 4 8 cbr 500 ------- 6 6.0 3.2 13 118
r 0.579 7 4 cbr 500 ------- 7 7.0 0.2 13 119
h 0.579 4 8 cbr 500 ------- 7 7.0 0.2 13 119
- 0.579136 0 8 cbr 500 ------- 0 0.0 5.2 5 48
- 0.579136 4 8 cbr 500 ------- 4 4.0 1.2 5 52
+ 0.58 0 8 cbr 500 ------- 0 0.0 5.2 8 72
+ 0.58 4 8 cbr 500 ------- 4 4.0 1.2 8 76
h 0.58 0 8 cbr 500 ------- 0 0.0 5.2 16 136
+ 0.58 1 0 cbr 500 ------- 1 1.0 6.2 16 137
- 0.58 1 0 cbr 500 ------- 1 1.0 6.2 16 137
+ 0.58 2 0 cbr 500 ------- 2 2.0 7.2 16 138
- 0.58 2 0 cbr 500 ------- 2 2.0 7.2 16 138
+ 0.58 3 0 cbr 500 ------- 3 3.0 4.2 16 139
- 0.58 3 0 cbr 500 ------- 3 3.0 4.2 16 139
h 0.58 4 8 cbr 500 ------- 4 4.0 1.2 16 140
+ 0.58 5 4 cbr 500 ------- 5 5.0 2.2 16 141
- 0.58 5 4 cbr 500 ------- 5 5.0 2.2 16 141
+ 0.58 6 4 cbr 500 ------- 6 6.0 3.2 16 142
- 0.58 6 4 cbr 500 ------- 6 6.0 3.2 16 142
+ 0.58 7 4 cbr 500 ------- 7 7.0 0.2 16 143
- 0.58 7 4 cbr 500 ------- 7 7.0 0.2 16 143
r 0.580004 8 4 tcp 40 ------- 0 0.1 4.3 0 0
h 0.580004 4 8 ack 40 ------- 0 4.3 0.1 0 144
r 0.580004 8 0 tcp 40 ------- 4 4.1 0.3 0 8
h 0.580004 0 8 ack 40 ------- 4 0.3 4.1 0 145
r 0.58042 8 4 cbr 500 ------- 0 0.0 5.2 0 1
+ 0.58042 4 5 cbr 500 ------- 0 0.0 5.2 0 1
- 0.58042 4 5 cbr 500 ------- 0 0.0 5.2 0 1
r 0.58042 8 0 cbr 500 ------- 4 4.0 1.2 0 9
+ 0.58042 0 1 cbr 500 ------- 4 4.0 1.2 0 9
- 0.58042 0 1 cbr 500 ------- 4 4.0 1.2 0 9
- 0.581392 0 8 cbr 500 ------- 1 1.0 6.2 3 33
- 0.581392 4 8 cbr 500 ------- 5 5.0 2.2 3 37
- 0.583648 0 8 cbr 500 ------- 2 2.0 7.2 3 34
- 0.583648 4 8 cbr 500 ------- 6 6.0 3.2 3 38
+ 0.584 0 8 cbr 500 ------- 1 1.0 6.2 6 57
+ 0.584 0 8 cbr 500 ------- 2 2.0 7.2 6 58
+ 0.584 0 8 cbr 500 ------- 3 3.0 4.2 6 59
+ 0.584 4 8 cbr 500 ------- 5 5.0 2.2 6 61
+ 0.584 4 8 cbr 500 ------- 6 6.0 3.2 6 62
+ 0.584 4 8 cbr 500 ------- 7 7.0 0.2 6 63
r 0.584 1 0 cbr 500 ------- 1 1.0 6.2 14 121
h 0.584 0 8 cbr 500 ------- 1 1.0 6.2 14 121
r 0.584 2 0 cbr 500 ------- 2 2.0 7.2 14 122
h 0.584 0 8 cbr 500 ------- 2 2.0 7.2 14 122
r 0.584 3 0 cbr 500 ------- 3 3.0 4.2 14 123
h 0.584 0 8 cbr 500 ------- 3 3.0 4.2 14 123
r 0.584 5 4 cbr 500 ------- 5 5.0 2.2 14 125
h 0.584 4 8 cbr 500 ------- 5 5.0 2.2 14 125
r 0.584 6 4 cbr 500 ------- 6 6.0 3.2 14 126
h 0.584 4 8 cbr 500 ------- 6 6.0 3.2 14 126
r 0.584 7 4 cbr 500 ------- 7 7.0 0.2 14 127
h 0.584 4 8 cbr 500 ------- 7 7.0 0.2 14 127
+ 0.585 0 8 cbr 500 ------- 0 0.0 5.2 9 80
+ 0.585 4 8 cbr 500 ------- 4 4.0 1.2 9 84
h 0.585 0 8 cbr 500 ------- 0 0.0 5.2 17 146
+ 0.585 1 0 cbr 500 ------- 1 1.0 6.2 17 147
- 0.585 1 0 cbr 500 ------- 1 1.0 6.2 17 147
+ 0.585 2 0 cbr 500 ------- 2 2.0 7.2 17 148
- 0.585 2 0 cbr 500 ------- 2 2.0 7.2 17 148
+ 0.585 3 0 cbr 500 ------- 3 3.0 4.2 17 149
- 0.585 3 0 cbr 500 ------- 3 3.0 4.2 17 149
h 0.585 4 8 cbr 500 ------- 4 4.0 1.2 17 150
+ 0.585 5 4 cbr 500 ------- 5 5.0 2.2 17 151
- 0.585 5 4 cbr 500 ------- 5 5.0 2.2 17 151
+ 0.585 6 4 cbr 500 ------- 6 6.0 3.2 17 152
- 0.585 6 4 cbr 500 ------- 6 6.0 3.2 17 152
+ 0.585 7 4 cbr 500 ------- 7 7.0 0.2 17 153
- 0.585 7 4 cbr 500 ------- 7 7.0 0.2 17 153
r 0.585004 8 4 cbr 500 ------- 0 0.0 5.2 1 16
+ 0.585004 4 5 cbr 500 ------- 0 0.0 5.2 1 16
- 0.585004 4 5 cbr 500 ------- 0 0.0 5.2 1 16
r 0.585004 8 0 cbr 500 ------- 4 4.0 1.2 1 20
+ 0.585004 0 1 cbr 500 ------- 4 4.0 1.2 1 20
- 0.585004 0 1 cbr 500 ------- 4 4.0 1.2 1 20
- 0.585904 0 8 cbr 500 ------- 3 3.0 4.2 3 35
- 0.585904 4 8 cbr 500 ------- 7 7.0 0.2 3 39
- 0.58816 0 8 cbr 500 ------- 0 0.0 5.2 6 56
- 0.58816 4 8 cbr 500 ------- 4 4.0 1.2 6 60
+ 0.589 0 8 cbr 500 ------- 1 1.0 6.2 7 65
+ 0.589 0 8 cbr 500 ------- 2 2.0 7.2 7 66
+ 0.589 0 8 cbr 500 ------- 3 3.0 4.2 7 67
+ 0.589 4 8 cbr 500 ------- 5 5.0 2.2 7 69
+ 0.589 4 8 cbr 500 ------- 6 6.0 3.2 7 70
+ 0.589 4 8 cbr 500 ------- 7 7.0 0.2 7 71
r 0.589 1 0 cbr 500 ------- 1 1.0 6.2 15 129
h 0.589 0 8 cbr 500 ------- 1 1.0 6.2 15 129
r 0.589 2 0 cbr 500 ------- 2 2.0 7.2 15 130
h 0.589 0 8 cbr 500 ------- 2 2.0 7.2 15 130
r 0.589 3 0 cbr 500 ------- 3 3.0 4.2 15 131
h 0.589 0 8 cbr 500 ------- 3 3.0 4.2 15 131
r 0.589 5 4 cbr 500 ------- 5 5.0 2.2 15 133
h 0.589 4 8 cbr 500 ------- 5 5.0 2.2 15 133
r 0.589 6 4 cbr 500 ------- 6 6.0 3.2 15 134
h 0.589 4 8 cbr 500 ------- 6 6.0 3.2 15 134
r 0.589 7 4 cbr 500 ------- 7 7.0 0.2 15 135
h 0.589 4 8 cbr 500 ------- 7 7.0 0.2 15 135
+ 0.59 0 8 cbr 500 ------- 0 0.0 5.2 10 88
+ 0.59 4 8 cbr 500 ------- 4 4.0 1.2 10 92
h 0.59 0 8 cbr 500 ------- 0 0.0 5.2 18 154
+ 0.59 1 0 cbr 500 ------- 1 1.0 6.2 18 155
- 0.59 1 0 cbr 500 ------- 1 1.0 6.2 18 155
+ 0.59 2 0 cbr 500 ------- 2 2.0 7.2 18 156
- 0.59 2 0 cbr 500 ------- 2 2.0 7.2 18 156
+ 0.59 3 0 cbr 500 ------- 3 3.0 4.2 18 157
- 0.59 3 0 cbr 500 ------- 3 3.0 4.2 18 157
h 0.59 4 8 cbr 500 ------- 4 4.0 1.2 18 158
+ 0.59 5 4 cbr 500 ------- 5 5.0 2.2 18 159
- 0.59 5 4 cbr 500 ------- 5 5.0 2.2 18 159
+ 0.59 6 4 cbr 500 ------- 6 6.0 3.2 18 160
- 0.59 6 4 cbr 500 ------- 6 6.0 3.2 18 160
+ 0.59 7 4 cbr 500 ------- 7 7.0 0.2 18 161
- 0.59 7 4 cbr 500 ------- 7 7.0 0.2 18 161
r 0.590004 8 4 cbr 500 ------- 0 0.0 5.2 2 24
+ 0.590004 4 5 cbr 500 ------- 0 0.0 5.2 2 24
- 0.590004 4 5 cbr 500 ------- 0 0.0 5.2 2 24
r 0.590004 8 0 cbr 500 ------- 4 4.0 1.2 2 28
+ 0.590004 0 1 cbr 500 ------- 4 4.0 1.2 2 28
- 0.590004 0 1 cbr 500 ------- 4 4.0 1.2 2 28
- 0.590416 0 8 cbr 500 ------- 1 1.0 6.2 4 41
- 0.590416 4 8 cbr 500 ------- 5 5.0 2.2 4 45
r 0.59226 8 4 tcp 40 ------- 1 1.1 5.3 0 2
+ 0.59226 4 5 tcp 40 ------- 1 1.1 5.3 0 2
r 0.59226 8 0 tcp 40 ------- 5 5.1 1.3 0 10
+ 0.59226 0 1 tcp 40 ------- 5 5.1 1.3 0 10
- 0.592672 0 8 cbr 500 ------- 2 2.0 7.2 4 42
- 0.592672 4 8 cbr 500 ------- 6 6.0 3.2 4 46
r 0.592676 8 4 tcp 40 ------- 2 2.1 6.3 0 4
+ 0.592676 4 6 tcp 40 ------- 2 2.1 6.3 0 4
- 0.592676 4 6 tcp 40 ------- 2 2.1 6.3 0 4
r 0.592676 8 0 tcp 40 ------- 6 6.1 2.3 0 12
+ 0.592676 0 2 tcp 40 ------- 6 6.1 2.3 0 12
- 0.592676 0 2 tcp 40 ------- 6 6.1 2.3 0 12
r 0.593092 8 4 tcp 40 ------- 3 3.1 7.3 0 6
+ 0.593092 4 7 tcp 40 ------- 3 3.1 7.3 0 6
- 0.593092 4 7 tcp 40 ------- 3 3.1 7.3 0 6
r 0.593092 8 0 tcp 40 ------- 7 7.1 3.3 0 14
+ 0.593092 0 3 tcp 40 ------- 7 7.1 3.3 0 14
- 0.593092 0 3 tcp 40 ------- 7 7.1 3.3 0 14
+ 0.594 0 8 cbr 500 ------- 1 1.0 6.2 8 73
+ 0.594 0 8 cbr 500 ------- 2 2.0 7.2 8 74
+ 0.594 0 8 cbr 500 ------- 3 3.0 4.2 8 75
+ 0.594 4 8 cbr 500 ------- 5 5.0 2.2 8 77
+ 0.594 4 8 cbr 500 ------- 6 6.0 3.2 8 78
+ 0.594 4 8 cbr 500 ------- 7 7.0 0.2 8 79
r 0.594 1 0 cbr 500 ------- 1 1.0 6.2 16 137
h 0.594 0 8 cbr 500 ------- 1 1.0 6.2 16 137
r 0.594 2 0 cbr 500 ------- 2 2.0 7.2 16 138
h 0.594 0 8 cbr 500 ------- 2 2.0 7.2 16 138
r 0.594 3 0 cbr 500 ------- 3 3.0 4.2 16 139
h 0.594 0 8 cbr 500 ------- 3 3.0 4.2 16 139
r 0.594 5 4 cbr 500 ------- 5 5.0 2.2 16 141
h 0.594 4 8 cbr 500 ------- 5 5.0 2.2 16 141
r 0.594 6 4 cbr 500 ------- 6 6.0 3.2 16 142
h 0.594 4 8 cbr 500 ------- 6 6.0 3.2 16 142
r 0.594 7 4 cbr 500 ------- 7 7.0 0.2 16 143
h 0.594 4 8 cbr 500 ------- 7 7.0 0.2 16 143
- 0.594004 4 5 tcp 40 ------- 1 1.1 5.3 0 2
- 0.594004 0 1 tcp 40 ------- 5 5.1 1.3 0 10
r 0.594324 8 4 cbr 500 ------- 1 1.0 6.2 0 3
+ 0.594324 4 6 cbr 500 ------- 1 1.0 6.2 0 3
- 0.594324 4 6 cbr 500 ------- 1 1.0 6.2 0 3
r 0.594324 8 0 cbr 500 ------- 5 5.0 2.2 0 11
+ 0.594324 0 2 cbr 500 ------- 5 5.0 2.2 0 11
- 0.594324 0 2 cbr 500 ------- 5 5.0 2.2 0 11
r 0.59442 4 5 cbr 500 ------- 0 0.0 5.2 0 1
r 0.59442 0 1 cbr 500 ------- 4 4.0 1.2 0 9
- 0.594928 0 8 cbr 500 ------- 3 3.0 4.2 4 43
- 0.594928 4 8 cbr 500 ------- 7 7.0 0.2 4 47
+ 0.595 0 8 cbr 500 ------- 0 0.0 5.2 11 96
+ 0.595 4 8 cbr 500 ------- 4 4.0 1.2 11 100
h 0.595 0 8 cbr 500 ------- 0 0.0 5.2 19 162
+ 0.595 1 0 cbr 500 ------- 1 1.0 6.2 19 163
- 0.595 1 0 cbr 500 ------- 1 1.0 6.2 19 163
+ 0.595 2 0 cbr 500 ------- 2 2.0 7.2 19 164
- 0.595 2 0 cbr 500 ------- 2 2.0 7.2 19 164